DG-THF-PF6-Na      Amber RESP
15500
    1DG      C1    1   1.983   5.240   2.390  0.7465 -0.3922  0.3197
    1DG      C2    2   2.144   5.733   1.925  0.0816  0.0468  0.5933
    1DG      H3    3   1.992   5.233   2.502 -1.4282 -0.2743  0.6033
    1DG      H4    4   1.909   5.167   2.353 -0.5980  1.1330  0.9967
    1DG      H5    5   1.934   5.339   2.385  0.2635 -3.0252 -0.9793
    1DG      H6    6   2.031   5.749   1.918  0.3612 -1.2078  0.3693
    1DG      H7    7   2.193   5.812   1.985 -2.5318  2.0848  1.8206
    1DG      H8    8   2.188   5.745   1.822 -0.8976 -0.8725  0.2699
    1DG      O9    9   2.109   5.239   2.334  0.4573  0.4962 -0.6410
    1DG     O10   10   2.165   5.610   1.988 -0.1940  0.5511  0.2588
    1DG     C11   11   2.103   5.192   2.202 -0.2330 -0.2050  0.1307
    1DG     C12   12   2.306   5.597   2.008  0.9869 -0.3906 -0.2473
    1DG     H13   13   2.009   5.205   2.148  0.6097 -3.4791  1.8254
    1DG     H14   14   2.107   5.085   2.212 -2.0622  1.5871 -0.0977
    1DG     H15   15   2.344   5.654   2.096 -0.4362  1.0659  2.1616
    1DG     H16   16   2.359   5.619   1.915 -1.8331  1.9609 -0.8847
    1DG     C17   17   2.227   5.243   2.121  0.4727  0.0597 -0.1179
    1DG     C18   18   2.324   5.445   2.030  0.5032 -0.3984 -0.4324
    1DG     O19   19   2.219   5.383   2.112 -0.4202  0.1112 -0.2335
    1DG     H20   20   2.217   5.202   2.023 -0.5851 -1.7265  2.2899
    1DG     H21   21   2.314   5.206   2.169  3.1348 -2.7449  0.5505
    1DG     H22   22   2.320   5.408   1.931 -0.5537 -0.6408 -1.2351
    1DG     H23   23   2.422   5.435   2.067  0.9238  0.0132  1.0472
    2DG      C1   24   3.600   0.760   1.123 -1.0527 -0.2202  0.1504
    2DG      C2   25   3.882   1.313   1.374  0.0349 -0.7162 -0.5456
    2DG      H3   26   3.612   0.706   1.215 -0.1193 -1.2998 -3.9943
    2DG      H4   27   3.681   0.739   1.052 -1.0783  0.0234 -0.5091
    2DG      H5   28   3.504   0.723   1.090 -1.3848  2.6221  1.5588
    2DG      H6   29   3.805   1.343   1.441  2.6671  1.1079 -0.2129
    2DG      H7   30   3.946   1.225   1.404  0.4310  0.6661 -2.3690
    2DG      H8   31   3.949   1.397   1.373  3.1846 -0.8202 -1.1594
    2DG      O9   32   3.587   0.904   1.138  0.3019 -0.1706  0.1349
    2DG     O10   33   3.811   1.280   1.247  0.1269 -0.1779 -0.5293
    2DG     C11   34   3.566   0.979   1.018 -0.8869 -0.4172 -0.5266
    2DG     C12   35   3.729   1.384   1.197 -0.9015 -0.5634  0.8677
    2DG     H13   36   3.489   0.932   0.960  1.3763  1.0557  4.6015
    2DG     H14   37   3.656   0.970   0.963 -0.7520  0.0656  2.5649
    2DG     H15   38   3.798   1.465   1.149 -1.7521 -0.0210  1.5209
    2DG     H16   39   3.667   1.434   1.272  1.8158  0.6066  0.3334
    2DG     C17   40   3.515   1.118   1.038 -0.0879 -0.1873  0.3905
    2DG     C18   41   3.632   1.321   1.096 -0.2250 -0.6792  0.0262
    2DG     O19   42   3.608   1.188   1.127 -0.1193  0.3362 -0.4815
    2DG     H20   43   3.420   1.120   1.087 -0.7135 -1.1744 -0.3377
    2DG     H21   44   3.500   1.163   0.943  3.8440  0.8257  1.2097
    2DG     H22   45   3.542   1.381   1.110 -3.5571 -0.1172 -0.6040
    2DG     H23   46   3.680   1.311   0.993 -0.9073 -1.8496 -0.8574
    3DG      C1   47   3.145   3.008   1.299 -0.2404  0.3700 -0.0750
    3DG      C2   48   2.890   2.764   1.808  0.1258 -0.2598 -0.1886
    3DG      H3   49   3.082   3.095   1.331  1.5626 -0.1369 -0.5810
    3DG      H4   50   3.172   3.018   1.192 -0.1891 -1.7295 -1.8623
    3DG      H5   51   3.237   3.001   1.351 -2.1994  0.7512  0.2555
    3DG      H6   52   2.914   2.661   1.841 -1.3095  0.6465  2.0225
    3DG      H7   53   2.979   2.816   1.825 -2.5596  0.4647 -0.2913
    3DG      H8   54   2.826   2.809   1.879 -1.2859  1.4139  0.6335
    3DG      O9   55   3.088   2.875   1.302 -0.0962 -0.4511  0.2534
    3DG     O10   56   2.840   2.765   1.673 -0.4204  0.7582 -0.2337
    3DG     C11   57   2.975   2.876   1.218  0.4276  0.2009  0.5681
    3DG     C12   58   2.818   2.888   1.610 -0.2675 -0.3515  0.0485
    3DG     H13   59   3.001   2.855   1.119 -0.6589 -3.3615 -1.7845
    3DG     H14   60   2.920   2.974   1.228 -0.4855  3.0174  0.6118
    3DG     H15   61   2.903   2.955   1.614  0.4868 -1.6009  0.6695
    3DG     H16   62   2.733   2.948   1.655  0.3205 -0.0479  1.5502
    3DG     C17   63   2.887   2.755   1.274 -0.0834  0.2129 -0.2037
    3DG     C18   64   2.787   2.864   1.464 -0.9890 -0.0480 -0.4467
    3DG     O19   65   2.881   2.766   1.413 -0.6912 -0.0191  0.4553
    3DG     H20   66   2.927   2.665   1.234 -1.0913  0.6857 -0.5400
    3DG     H21   67   2.785   2.767   1.237  2.7270  0.2529  1.2344
    3DG     H22   68   2.691   2.818   1.463  2.5168 -1.2569  1.5766
    3DG     H23   69   2.783   2.952   1.393  1.8294  1.9044 -0.8600
    4DG      C1   70   3.688   3.058   2.885 -0.3570 -0.0307  0.0398
    4DG      C2   71   4.308   3.765   2.789 -0.5660 -0.1283 -0.1994
    4DG      H3   72   3.636   3.001   2.961 -1.1505  0.4681 -0.5869
    4DG      H4   73   3.766   2.991   2.844  0.1103 -1.8516 -0.7570
    4DG      H5   74   3.625   3.079   2.807  0.9322 -2.2430  2.9073
    4DG      H6   75   4.325   3.876   2.793  0.5549  0.5046 -2.1333
    4DG      H7   76   4.383   3.702   2.832 -0.0582  0.7699 -3.5147
    4DG      H8   77   4.301   3.746   2.683 -1.2748  0.5858  0.6819
    4DG      O9   78   3.734   3.176   2.959 -0.3264  0.7500 -0.6535
    4DG     O10   79   4.187   3.726   2.861  0.0103  0.7734 -0.0201
    4DG     C11   80   3.785   3.280   2.880  0.3442  0.8393  0.1994
    4DG     C12   81   4.129   3.602   2.816  0.3820 -0.3961  0.0598
    4DG     H13   82   3.706   3.326   2.824  0.6186 -2.2646 -3.1785
    4DG     H14   83   3.857   3.238   2.816  1.8894  1.4702  2.3785
    4DG     H15   84   4.200   3.516   2.825 -0.6793 -0.9840 -0.1479
    4DG     H16   85   4.097   3.628   2.712 -1.3152  0.8344  1.2751
    4DG     C17   86   3.853   3.394   2.956 -0.0913 -0.8547 -0.0940
    4DG     C18   87   4.013   3.573   2.911  0.1170 -0.4283 -0.0287
    4DG     O19   88   3.937   3.464   2.857 -0.1957  0.4288 -0.1577
    4DG     H20   89   3.903   3.355   3.047  0.5926  0.5118  1.5714
    4DG     H21   90   3.785   3.477   3.005  0.2780  2.1840 -1.6613
    4DG     H22   91   4.063   3.527   2.998  0.7115  2.3246 -1.2880
    4DG     H23   92   3.954   3.657   2.943  0.1974  0.7610 -1.4789
    5DG      C1   93   4.988   3.247   0.112  1.0773  0.5608 -0.0129
    5DG      C2   94   5.170   2.999   0.733 -0.4569  0.7804 -0.2844
    5DG      H3   95   4.913   3.310   0.075 -2.0304  1.2295  0.1817
    5DG      H4   96   4.941   3.149   0.119 -0.0264  0.4901 -0.2854
    5DG      H5   97   5.079   3.230   0.061  0.9247 -0.9768  2.8874
    5DG      H6   98   5.248   2.929   0.701 -0.0088 -1.5988 -1.0748
    5DG      H7   99   5.192   3.037   0.833  0.5810 -0.5149 -0.5459
    5DG      H8  100   5.085   2.935   0.736 -0.5751  0.5524 -1.2388
    5DG      O9  101   5.020   3.284   0.244 -0.0377 -0.5069  0.0122
    5DG     O10  102   5.154   3.109   0.634 -0.5006 -0.2721  0.5275
    5DG     C11  103   5.096   3.401   0.253 -0.6303  0.2698  0.4520
    5DG     C12  104   5.268   3.196   0.639 -1.1127  0.1534  0.5931
    5DG     H13  105   5.045   3.480   0.198 -1.9371  0.0320  2.2040
    5DG     H14  106   5.185   3.376   0.196 -2.8951  1.5082  1.9165
    5DG     H15  107   5.349   3.162   0.574 -1.2861  2.5352  2.0529
    5DG     H16  108   5.303   3.198   0.740 -0.0262 -2.8915 -1.3687
    5DG     C17  109   5.127   3.447   0.403  0.0879 -0.0218  0.1283
    5DG     C18  110   5.227   3.339   0.602 -0.2724  0.2541  0.6233
    5DG     O19  111   5.170   3.331   0.473  0.3070  0.5915  0.3909
    5DG     H20  112   5.032   3.486   0.444 -2.5320  1.2171  2.2364
    5DG     H21  113   5.200   3.533   0.406 -1.2994  0.1846 -1.6778
    5DG     H22  114   5.151   3.370   0.666  3.1605  1.6200 -1.0185
    5DG     H23  115   5.310   3.407   0.623 -0.5790 -2.7637  3.0746
    6DG      C1  116   4.768   4.638   1.471  0.3982 -0.0861  0.3353
    6DG      C2  117   4.570   5.141   1.870  0.1922 -0.1684  0.7048
    6DG      H3  118   4.873   4.660   1.495  1.6879 -1.7298 -0.5305
    6DG      H4  119   4.746   4.586   1.374 -0.9417 -1.5354 -0.7932
    6DG      H5  120   4.734   4.585   1.561 -0.8621 -1.4784  0.4545
    6DG      H6  121   4.497   5.064   1.843  0.8415  0.7692  0.7877
    6DG      H7  122   4.612   5.104   1.963 -1.8651  1.7721 -0.9552
    6DG      H8  123   4.519   5.232   1.891 -0.8072 -1.9504  1.8892
    6DG      O9  124   4.715   4.771   1.465  0.2489 -0.3091 -0.1355
    6DG     O10  125   4.658   5.162   1.763  0.4040  0.0198  0.0301
    6DG     C11  126   4.576   4.766   1.469  0.1765 -0.2311  0.8031
    6DG     C12  127   4.601   5.217   1.646  0.4124 -0.6463 -0.5215
    6DG     H13  128   4.537   4.703   1.550  0.8989 -0.5290 -1.2039
    6DG     H14  129   4.548   4.722   1.374  0.9026 -0.1615  0.1019
    6DG     H15  130   4.671   5.251   1.571 -2.2192 -0.0923 -1.1079
    6DG     H16  131   4.541   5.308   1.671 -1.4789 -0.1921  1.3963
    6DG     C17  132   4.510   4.903   1.466 -0.3537  0.2092 -0.5173
    6DG     C18  133   4.496   5.121   1.579  0.2783 -0.1971 -0.3830
    6DG     O19  134   4.567   5.000   1.563  0.1139 -0.0247  0.3453
    6DG     H20  135   4.408   4.891   1.494 -0.5300 -2.4374  0.0734
    6DG     H21  136   4.523   4.949   1.364 -0.9874  0.3404  0.6138
    6DG     H22  137   4.406   5.104   1.643 -0.5963 -0.9380  1.4848
    6DG     H23  138   4.456   5.149   1.478 -0.5434 -1.9683 -1.2943
    7DG      C1  139   0.546   3.400   1.729 -0.5060 -0.7988  0.4019
    7DG      C2  140   1.159   3.645   1.897  0.1761  0.6794  0.0508
    7DG      H3  141   0.526   3.492   1.671  1.6075 -0.9740 -1.1851
    7DG      H4  142   0.446   3.355   1.742  1.0107 -0.3484  2.3471
    7DG      H5  143   0.595   3.334   1.662 -1.0417 -2.7243  0.3382
    7DG      H6  144   1.209   3.589   1.814 -1.9575 -0.9533 -0.7466
    7DG      H7  145   1.109   3.739   1.860  1.8766 -0.8140 -0.3993
    7DG      H8  146   1.245   3.673   1.955 -1.8908 -3.0139  1.0226
    7DG      O9  147   0.614   3.440   1.847  0.2539 -0.2405  0.2817
    7DG     O10  148   1.068   3.566   1.969  0.3307 -0.0629 -0.4566
    7DG     C11  149   0.639   3.335   1.936 -0.1571 -0.1314  0.3258
    7DG     C12  150   0.998   3.632   2.076  0.4225 -0.3744 -0.3666
    7DG     H13  151   0.692   3.263   1.879  0.3052 -1.8261 -1.1433
    7DG     H14  152   0.547   3.295   1.964  0.2619 -0.8322  1.8103
    7DG     H15  153   0.934   3.710   2.025  4.2628 -1.1222 -0.0245
    7DG     H16  154   1.067   3.675   2.157  0.6667 -2.3625  0.3119
    7DG     C17  155   0.715   3.384   2.058  0.1181  0.1051  0.3859
    7DG     C18  156   0.905   3.525   2.135  0.0212 -0.1042  0.3624
    7DG     O19  157   0.821   3.476   2.027  0.0431 -0.0383  0.0292
    7DG     H20  158   0.752   3.303   2.117 -1.2076  2.0278  0.5549
    7DG     H21  159   0.648   3.423   2.141 -1.1910  0.3506 -1.4338
    7DG     H22  160   0.962   3.437   2.183 -2.7918 -2.0930 -1.3002
    7DG     H23  161   0.840   3.573   2.207  1.0288 -0.9254 -0.6907
    8DG      C1  162   0.084   1.527   2.452 -0.5101 -0.0312  0.5293
    8DG      C2  163   0.697   1.150   2.788  0.2531  0.7297 -0.0200
    8DG      H3  164   0.085   1.626   2.405  1.4265 -1.4813 -1.9901
    8DG      H4  165  -0.016   1.511   2.482 -0.7080  1.2633  1.2253
    8DG      H5  166   0.103   1.464   2.361  3.9970  1.1828 -0.5053
    8DG      H6  167   0.753   1.124   2.881 -0.1873 -0.1162 -0.6685
    8DG      H7  168   0.669   1.059   2.738 -0.5309 -0.6113  0.6656
    8DG      H8  169   0.768   1.202   2.737 -2.4389  1.8072  1.6514
    8DG      O9  170   0.181   1.521   2.561 -0.4271 -1.0902 -0.2717
    8DG     O10  171   0.582   1.235   2.812 -0.3745 -0.4442  0.1343
    8DG     C11  172   0.185   1.396   2.625 -0.0993  0.4508 -0.3762
    8DG     C12  173   0.500   1.182   2.911 -0.3016 -0.5683 -0.0273
    8DG     H13  174   0.210   1.302   2.568  1.1503  1.4668  1.7304
    8DG     H14  175   0.086   1.374   2.674 -0.3697 -0.6854 -2.1105
    8DG     H15  176   0.554   1.162   3.008  0.5742 -0.3407 -2.2091
    8DG     H16  177   0.448   1.090   2.872  0.0373 -1.1702  1.0021
    8DG     C17  178   0.294   1.405   2.732 -0.2871  0.1458 -0.1633
    8DG     C18  179   0.380   1.280   2.933 -0.1751 -0.1986  1.0378
    8DG     O19  180   0.290   1.293   2.826  0.4865 -0.3640  0.1059
    8DG     H20  181   0.284   1.499   2.788 -1.8990  2.8780  2.9206
    8DG     H21  182   0.396   1.401   2.692 -2.4141 -0.8293  0.1724
    8DG     H22  183   0.332   1.247   3.019  1.0102 -0.1639 -3.9687
    8DG     H23  184   0.412   1.380   2.954 -0.6807  0.4822  0.3326
    9DG      C1  185   5.320   3.752   3.089 -0.2102 -0.2197  1.0840
    9DG      C2  186   5.306   3.043   2.705  0.6927 -0.3775  0.0355
    9DG      H3  187   5.345   3.841   3.143  0.2037  1.5780 -1.7396
    9DG      H4  188   5.207   3.745   3.111 -2.7460 -1.4593  1.7384
    9DG      H5  189   5.334   3.775   2.981 -1.8475  2.6470  0.2138
    9DG      H6  190   5.300   2.931   2.719  4.0315  3.0892 -0.7838
    9DG      H7  191   5.211   3.090   2.675  0.9389  1.1564  0.1209
    9DG      H8  192   5.367   3.051   2.617 -2.0210 -0.9559 -0.5529
    9DG      O9  193   5.405   3.643   3.123 -0.0349 -0.2643 -0.4428
    9DG     O10  194   5.382   3.113   2.798  0.1824  0.3874  0.1641
    9DG     C11  195   5.372   3.526   3.044 -1.0030  0.4303 -0.0870
    9DG     C12  196   5.362   3.070   2.933 -0.1859 -0.3627 -0.1139
    9DG     H13  197   5.390   3.548   2.940 -0.6485 -0.0388 -0.2045
    9DG     H14  198   5.269   3.499   3.065  2.3904 -1.0748  3.4590
    9DG     H15  199   5.410   2.971   2.951 -0.6679  0.3149 -1.6632
    9DG     H16  200   5.248   3.063   2.940 -1.0467  0.4617 -0.3838
    9DG     C17  201   5.452   3.399   3.072 -0.4552  0.4241 -0.1654
    9DG     C18  202   5.429   3.166   3.036  0.1420  0.0250  0.4408
    9DG     O19  203   5.392   3.292   3.004  0.2665  0.2717 -0.4786
    9DG     H20  204   5.455   3.383   3.182 -1.4850 -0.3074 -0.9180
    9DG     H21  205   5.556   3.416   3.034  2.3232 -2.1684 -1.8101
    9DG     H22  206   5.386   3.130   3.128 -3.2202  0.0294  0.6515
    9DG     H23  207   5.536   3.171   3.029 -1.1614 -1.0664 -2.1804
   10DG      C1  208   1.773   3.895   4.518 -0.0994  0.3099  0.2690
   10DG      C2  209   1.282   3.599   4.876  0.0932  0.8582 -0.0520
   10DG      H3  210   1.756   3.988   4.455 -3.1120  0.5982 -2.8581
   10DG      H4  211   1.756   3.800   4.467  1.4187 -0.1072 -0.4437
   10DG      H5  212   1.882   3.894   4.538  3.8263 -0.4425  1.1790
   10DG      H6  213   1.213   3.604   4.965 -0.2140  1.5505 -0.4025
   10DG      H7  214   1.229   3.582   4.781  0.6144  0.9300 -0.5900
   10DG      H8  215   1.336   3.501   4.871 -0.6473 -0.7419 -0.5802
   10DG      O9  216   1.695   3.890   4.636  0.0800  0.5570  0.3866
   10DG     O10  217   1.371   3.706   4.871 -0.3708 -0.0220 -0.1649
   10DG     C11  218   1.693   4.005   4.716 -0.0775  0.6342  0.1140
   10DG     C12  219   1.431   3.727   4.997 -0.1319 -0.3191  0.0016
   10DG     H13  220   1.628   4.082   4.669  2.1193 -0.3424 -0.7642
   10DG     H14  221   1.789   4.053   4.723 -1.9684  0.4298  0.1947
   10DG     H15  222   1.507   3.651   5.002  0.4320  0.5357 -1.0763
   10DG     H16  223   1.367   3.708   5.082 -0.7965 -1.3151  1.2090
   10DG     C17  224   1.653   3.981   4.860 -0.0417  0.2010 -0.4546
   10DG     C18  225   1.495   3.870   4.992 -0.2264  0.3199  0.1734
   10DG     O19  226   1.553   3.879   4.862  0.1066  0.0124  0.1272
   10DG     H20  227   1.614   4.062   4.910 -0.9007  0.9807  0.4480
   10DG     H21  228   1.727   3.928   4.921  0.1239 -0.0228 -0.3141
   10DG     H22  229   1.427   3.948   5.000  0.3331 -0.5673 -0.3227
   10DG     H23  230   1.568   3.873   5.069 -0.7379  0.6866  1.1820
   11DG      C1  231   0.240   4.381   1.092 -0.8956  0.3911 -0.3077
   11DG      C2  232   0.248   3.953   1.731  0.0969  0.7698 -0.3631
   11DG      H3  233   0.295   4.381   0.997  2.6534  0.1768  2.2122
   11DG      H4  234   0.262   4.461   1.158 -0.8488  0.9091  1.4497
   11DG      H5  235   0.131   4.382   1.087 -1.8722 -0.8452  1.0326
   11DG      H6  236   0.309   4.013   1.802  1.8265 -0.3436  1.4381
   11DG      H7  237   0.151   3.994   1.731  3.3924  0.1712  0.4701
   11DG      H8  238   0.227   3.851   1.769  2.3402  0.4137  0.1744
   11DG      O9  239   0.287   4.265   1.164  0.2497  0.2265 -0.0527
   11DG     O10  240   0.307   3.944   1.600  0.3945  0.2234 -0.4002
   11DG     C11  241   0.264   4.148   1.103 -0.0315 -0.6789  0.9483
   11DG     C12  242   0.234   3.860   1.511  0.0913  0.5482  0.1128
   11DG     H13  243   0.282   4.144   0.994 -0.2027 -2.0438  0.2408
   11DG     H14  244   0.159   4.136   1.116 -0.2360 -0.8434 -0.0012
   11DG     H15  245   0.125   3.876   1.520 -1.7473  1.9691  1.6801
   11DG     H16  246   0.240   3.757   1.549  1.0513  0.5673  1.0705
   11DG     C17  247   0.320   4.030   1.183  0.4440 -0.0818 -0.3263
   11DG     C18  248   0.279   3.877   1.365  0.1660  0.5747  0.0585
   11DG     O19  249   0.258   4.012   1.313  0.4740  0.3562 -0.1696
   11DG     H20  250   0.435   4.028   1.179  0.4954 -1.0477  1.8210
   11DG     H21  251   0.302   3.937   1.132  0.0866 -0.0706 -2.1238
   11DG     H22  252   0.374   3.846   1.341 -2.1665  1.1163  2.0267
   11DG     H23  253   0.223   3.806   1.307  0.0546 -1.7656 -0.8866
   12DG      C1  254   2.138   4.921   1.929  0.3536 -0.6457  0.0986
   12DG      C2  255   1.910   4.375   1.903 -0.3317  0.2088  0.0923
   12DG      H3  256   2.127   5.010   1.873  2.2366  0.2985  0.3444
   12DG      H4  257   2.232   4.922   1.975 -0.8594 -0.2329 -1.5954
   12DG      H5  258   2.057   4.924   2.006  0.1828 -0.1471 -0.8077
   12DG      H6  259   1.838   4.297   1.876  0.0664  0.8440 -1.9955
   12DG      H7  260   1.911   4.350   2.012 -3.8041 -0.0761  0.7777
   12DG      H8  261   1.883   4.481   1.903 -2.9137  0.4467  0.8237
   12DG      O9  262   2.123   4.812   1.848  0.1928 -0.7749  0.3058
   12DG     O10  263   2.032   4.359   1.836  0.8305  0.6860  0.1017
   12DG     C11  264   1.996   4.816   1.778  0.2624  0.4462  0.5885
   12DG     C12  265   2.010   4.353   1.696 -0.0680 -0.3150  0.8719
   12DG     H13  266   1.980   4.909   1.732  1.2842 -2.3248 -3.1066
   12DG     H14  267   1.906   4.791   1.837 -1.4077 -1.7219  0.1345
   12DG     H15  268   1.944   4.275   1.667 -0.3343  2.2918  1.4474
   12DG     H16  269   2.107   4.317   1.663  0.6662  2.2222 -1.9848
   12DG     C17  270   1.996   4.718   1.660  0.2789 -0.5535  0.1484
   12DG     C18  271   1.985   4.489   1.626  0.1361 -0.4644  0.3055
   12DG     O19  272   2.027   4.592   1.710 -0.4514  0.3541  0.3845
   12DG     H20  273   2.078   4.753   1.590  0.3662  0.6278  0.2858
   12DG     H21  274   1.900   4.732   1.610  1.1688 -0.9785 -0.4641
   12DG     H22  275   2.037   4.483   1.527  0.6784  0.7841  0.2241
   12DG     H23  276   1.878   4.496   1.600  0.5535 -2.6482  1.5328
   13DG      C1  277   4.788   4.742   4.088  0.2482 -0.8399 -0.4490
   13DG      C2  278   5.062   5.165   4.765 -0.7438 -0.6435  0.2160
   13DG      H3  279   4.789   4.633   4.073  0.3804 -1.2828 -1.4135
   13DG      H4  280   4.816   4.798   3.998 -2.8024 -0.3816 -0.8768
   13DG      H5  281   4.691   4.779   4.115  1.1272  1.0804 -1.6647
   13DG      H6  282   5.164   5.197   4.746 -0.2743 -0.8590 -0.2828
   13DG      H7  283   4.991   5.230   4.712 -0.7780  2.0412 -0.8710
   13DG      H8  284   5.030   5.165   4.869  1.7798  1.3460 -0.2380
   13DG      O9  285   4.866   4.769   4.202 -0.4337  0.6344 -0.2893
   13DG     O10  286   5.059   5.036   4.709  0.2695  0.0343 -0.1033
   13DG     C11  287   5.008   4.743   4.195  0.0065  0.5623 -0.3578
   13DG     C12  288   5.098   5.027   4.574  0.1093  0.0979 -0.1045
   13DG     H13  289   5.066   4.810   4.133  0.7511 -3.1590 -0.1346
   13DG     H14  290   5.019   4.642   4.162  0.3001 -0.5728 -1.1725
   13DG     H15  291   5.195   5.061   4.543  0.5964 -1.1027 -1.7361
   13DG     H16  292   5.035   5.082   4.501 -2.2708 -0.4205  0.0842
   13DG     C17  293   5.080   4.746   4.332 -0.0117 -0.4744  0.2072
   13DG     C18  294   5.090   4.881   4.529  0.7162  0.4436  0.1157
   13DG     O19  295   5.095   4.878   4.381 -0.4586  0.3249 -0.9222
   13DG     H20  296   5.177   4.708   4.316 -3.1765 -1.3210 -0.2780
   13DG     H21  297   5.042   4.670   4.407 -0.9723  1.5034  2.2040
   13DG     H22  298   5.174   4.825   4.567 -0.3287  0.5817 -3.5551
   13DG     H23  299   4.996   4.831   4.562  0.7101 -0.2093 -1.0729
   14DG      C1  300   5.153   0.160   2.328 -0.0390 -0.0681 -0.1950
   14DG      C2  301   4.816  -0.480   2.172 -0.4583  0.6768  0.3285
   14DG      H3  302   5.237   0.173   2.258 -0.9989  0.4505 -0.4015
   14DG      H4  303   5.173   0.229   2.411 -0.3546  1.3497  2.2735
   14DG      H5  304   5.061   0.180   2.279  1.4234 -1.2160 -1.4686
   14DG      H6  305   4.837  -0.460   2.068  1.6083  0.7138 -1.2548
   14DG      H7  306   4.825  -0.590   2.182  0.7975 -1.2457 -1.0316
   14DG      H8  307   4.712  -0.448   2.187  0.3149 -2.1673 -0.7238
   14DG      O9  308   5.146   0.018   2.359  0.5335 -0.0527 -0.0681
   14DG     O10  309   4.914  -0.418   2.247  0.2747 -0.3231 -0.0691
   14DG     C11  310   5.119  -0.023   2.492  0.6272 -0.6759  0.6612
   14DG     C12  311   4.891  -0.426   2.387 -0.1603  0.0179  0.0391
   14DG     H13  312   5.013   0.010   2.515  3.4059 -0.1127 -1.3529
   14DG     H14  313   5.195   0.021   2.555 -0.6108 -4.9463 -1.5503
   14DG     H15  314   4.872  -0.525   2.422 -1.2207 -1.8957  0.0449
   14DG     H16  315   4.796  -0.373   2.409 -1.1196  0.8233  1.1799
   14DG     C17  316   5.127  -0.179   2.514 -0.5796 -0.3878  0.0600
   14DG     C18  317   5.019  -0.379   2.455 -0.1649 -0.1075 -0.2234
   14DG     O19  318   5.030  -0.241   2.433  0.2958 -0.8112  0.3883
   14DG     H20  319   5.122  -0.200   2.621 -1.7696  0.8449 -0.4001
   14DG     H21  320   5.224  -0.227   2.487 -0.6471 -3.8494 -0.4069
   14DG     H22  321   5.007  -0.399   2.558 -1.9152  2.3778 -1.3896
   14DG     H23  322   5.106  -0.431   2.419 -2.2830 -0.3130  0.6735
   15DG      C1  323   2.753   1.565   1.280 -0.6627  0.7330 -0.2244
   15DG      C2  324   2.561   1.512   0.625  0.5786  0.2877 -0.0120
   15DG      H3  325   2.699   1.655   1.279  1.6882 -0.4397 -1.8611
   15DG      H4  326   2.832   1.570   1.352  1.2252 -1.9945  1.5038
   15DG      H5  327   2.681   1.486   1.311  1.5605  3.9006 -2.2337
   15DG      H6  328   2.606   1.473   0.534 -1.0138 -0.1515 -1.3109
   15DG      H7  329   2.483   1.446   0.664  3.9548 -2.2131 -0.6748
   15DG      H8  330   2.527   1.610   0.599 -3.9519  0.9901  0.3767
   15DG      O9  331   2.814   1.540   1.152 -0.4405  0.3773 -0.5332
   15DG     O10  332   2.658   1.514   0.725  0.2701  0.1634 -0.1910
   15DG     C11  333   2.906   1.637   1.125 -0.7162 -0.6353  0.2921
   15DG     C12  334   2.768   1.595   0.689 -0.0648 -0.4411 -0.5945
   15DG     H13  335   2.993   1.640   1.192  5.3362  2.1340  0.4815
   15DG     H14  336   2.863   1.737   1.126 -2.0569 -2.5236 -1.1982
   15DG     H15  337   2.742   1.701   0.708  1.2219  0.6342  0.3848
   15DG     H16  338   2.787   1.580   0.578  1.3619 -0.2129 -0.7333
   15DG     C17  339   2.967   1.599   0.993  0.7250  0.5595  0.0725
   15DG     C18  340   2.894   1.565   0.766  0.5746  0.4066  0.2318
   15DG     O19  341   2.860   1.593   0.901  0.2712 -0.2020  0.2947
   15DG     H20  342   3.022   1.505   1.012 -0.8475 -1.8704  2.6006
   15DG     H21  343   3.041   1.674   0.969  0.5093  2.3593 -1.1791
   15DG     H22  344   2.915   1.461   0.754 -2.5896 -0.9239 -0.3902
   15DG     H23  345   2.981   1.617   0.741 -0.0148 -0.8624 -1.4725
   16DG      C1  346   1.446   2.289   5.049  0.1343 -0.1964  0.4679
   16DG      C2  347   1.222   2.209   5.624 -0.6161 -0.1836  0.6324
   16DG      H3  348   1.397   2.371   4.997 -0.0555 -0.5635 -3.7918
   16DG      H4  349   1.509   2.224   4.987  1.9408 -0.9213  0.2873
   16DG      H5  350   1.515   2.340   5.117 -1.2296  1.0030 -1.3699
   16DG      H6  351   1.236   2.315   5.639  0.2050  0.0087  1.2132
   16DG      H7  352   1.186   2.171   5.719 -1.1422  2.5432 -0.1416
   16DG      H8  353   1.312   2.170   5.589 -1.8767 -1.1869 -1.5825
   16DG      O9  354   1.355   2.213   5.124 -0.9507  0.2936  0.7313
   16DG     O10  355   1.127   2.195   5.521  0.9453 -0.0431  0.1972
   16DG     C11  356   1.267   2.124   5.062 -0.2699  0.1941 -0.2983
   16DG     C12  357   1.094   2.061   5.493  0.1853 -0.4520 -0.0875
   16DG     H13  358   1.304   2.073   4.976  0.8739 -0.0410 -1.5254
   16DG     H14  359   1.180   2.177   5.020 -2.5497 -2.0590  1.3102
   16DG     H15  360   0.985   2.071   5.471 -0.2934 -1.4171  0.7025
   16DG     H16  361   1.100   2.003   5.584  1.6015 -1.9445  2.0087
   16DG     C17  362   1.224   2.014   5.166 -0.8011  0.1304 -0.5397
   16DG     C18  363   1.175   2.001   5.386 -0.5527  0.7945  0.1006
   16DG     O19  364   1.171   2.080   5.275 -0.5019  0.3286  0.7812
   16DG     H20  365   1.308   1.947   5.194  0.6720  0.2910  1.4179
   16DG     H21  366   1.144   1.954   5.118  1.0232 -1.8471 -0.6299
   16DG     H22  367   1.283   1.988   5.409 -0.5604  2.6005 -2.2434
   16DG     H23  368   1.144   1.897   5.363 -1.3498 -1.5032 -1.2318
   17DG      C1  369   4.578   3.443   4.246  0.0961 -0.3115  0.1607
   17DG      C2  370   3.793   3.517   4.326  0.7586 -0.2374 -0.5460
   17DG      H3  371   4.520   3.479   4.158  0.1703  0.7603 -0.2981
   17DG      H4  372   4.674   3.411   4.213  0.7680 -1.5745  2.7696
   17DG      H5  373   4.589   3.530   4.312 -1.3271 -0.6896  1.7168
   17DG      H6  374   3.713   3.486   4.264  1.7358  2.1006  2.8117
   17DG      H7  375   3.753   3.519   4.430  2.0171 -0.1398  1.0678
   17DG      H8  376   3.813   3.623   4.299  0.4666 -4.3770 -1.1671
   17DG      O9  377   4.507   3.336   4.308 -0.5260 -0.6582 -0.3781
   17DG     O10  378   3.906   3.431   4.316  0.1236  0.8311  0.0399
   17DG     C11  379   4.378   3.377   4.364  0.1701  0.3737  0.7929
   17DG     C12  380   3.904   3.306   4.383 -0.2935 -0.5128  0.0803
   17DG     H13  381   4.341   3.465   4.310  0.5303  0.0213 -0.3814
   17DG     H14  382   4.378   3.407   4.474  0.8270  0.1627  0.5024
   17DG     H15  383   3.827   3.234   4.352  1.2662  0.6835 -0.2501
   17DG     H16  384   3.884   3.309   4.487 -0.1921 -1.1508 -1.0832
   17DG     C17  385   4.273   3.264   4.358  0.1669  0.3152  0.9133
   17DG     C18  386   4.045   3.241   4.360 -0.0664 -0.1399 -0.0942
   17DG     O19  387   4.148   3.333   4.381  0.1928  0.4692  0.0440
   17DG     H20  388   4.293   3.196   4.429  1.3203  2.1393  0.9175
   17DG     H21  389   4.280   3.210   4.265 -1.6519  1.4998  1.7255
   17DG     H22  390   4.056   3.159   4.431 -0.6602  3.7256  1.0203
   17DG     H23  391   4.049   3.193   4.256  3.0004 -0.8830  0.5279
   18DG      C1  392   2.241   3.922   0.067  0.3715  0.9926 -0.5117
   18DG      C2  393   2.734   4.353  -0.174  0.1528 -0.7699  0.0193
   18DG      H3  394   2.196   4.019   0.040 -0.8395  1.4979  1.5244
   18DG      H4  395   2.270   3.932   0.170  1.7816  2.4605  3.6195
   18DG      H5  396   2.177   3.828   0.053 -1.5386 -1.6154  1.5011
   18DG      H6  397   2.685   4.449  -0.196 -0.0761 -2.2898  3.2898
   18DG      H7  398   2.736   4.342  -0.070 -1.0277  0.3057 -2.4103
   18DG      H8  399   2.830   4.366  -0.218  0.2577 -1.6619  0.8740
   18DG      O9  400   2.351   3.891  -0.019  0.4797  0.0236 -0.1426
   18DG     O10  401   2.680   4.241  -0.243 -0.3877 -0.1776 -0.2126
   18DG     C11  402   2.313   3.898  -0.159 -0.4535  0.5704 -0.2913
   18DG     C12  403   2.729   4.118  -0.193  0.0781 -0.3887 -0.1754
   18DG     H13  404   2.243   3.981  -0.177  2.8469  1.6241 -0.3446
   18DG     H14  405   2.258   3.812  -0.175 -0.4692  1.4999 -2.0577
   18DG     H15  406   2.711   4.107  -0.087 -0.8549  1.2847  1.9592
   18DG     H16  407   2.838   4.106  -0.209  1.7432 -0.4078 -2.6521
   18DG     C17  408   2.442   3.900  -0.246 -0.6050  0.3327 -0.2922
   18DG     C18  409   2.657   3.998  -0.251  0.2366  0.1512 -0.0939
   18DG     O19  410   2.518   4.015  -0.229 -0.3388 -0.3187 -0.1925
   18DG     H20  411   2.411   3.895  -0.347  1.0150 -2.2801  0.5637
   18DG     H21  412   2.504   3.807  -0.237  1.2062 -0.4417 -1.5657
   18DG     H22  413   2.671   3.989  -0.361  1.1829  0.3808  1.4183
   18DG     H23  414   2.690   3.904  -0.198  2.7806 -0.5226 -1.7397
   19DG      C1  415   1.618   1.675   1.732 -0.0725  0.2520  0.1293
   19DG      C2  416   1.848   1.103   1.745  0.3052  0.9731 -0.1153
   19DG      H3  417   1.551   1.604   1.761  1.4031 -1.0666 -1.8098
   19DG      H4  418   1.629   1.679   1.627 -0.0111 -0.9387  1.4846
   19DG      H5  419   1.579   1.773   1.770 -3.0698  0.8944  1.5050
   19DG      H6  420   1.901   1.055   1.665  2.4690  1.1008 -0.3956
   19DG      H7  421   1.851   1.036   1.834 -0.4869 -1.0024  2.1485
   19DG      H8  422   1.746   1.102   1.704  0.2769  1.7755 -1.4148
   19DG      O9  423   1.750   1.638   1.775  0.1289  0.7865  0.1252
   19DG     O10  424   1.893   1.227   1.778  0.6217 -0.0916  0.0407
   19DG     C11  425   1.782   1.652   1.914 -0.4192  0.0853 -0.3328
   19DG     C12  426   1.999   1.239   1.853  0.0044 -0.3811 -0.8724
   19DG     H13  427   1.701   1.615   1.975  2.3570  0.7279  0.2109
   19DG     H14  428   1.796   1.756   1.937 -1.1502 -0.7644 -0.8500
   19DG     H15  429   2.096   1.209   1.803  2.4953 -2.4817  2.6612
   19DG     H16  430   1.986   1.181   1.949  0.0523  1.1260 -0.7847
   19DG     C17  431   1.909   1.581   1.957 -0.6183 -0.4317 -1.1635
   19DG     C18  432   2.027   1.383   1.877  0.6523  0.6906 -0.3847
   19DG     O19  433   1.897   1.449   1.911 -0.3093  0.4604  0.0653
   19DG     H20  434   1.921   1.577   2.062  1.5881  0.4607 -1.0394
   19DG     H21  435   1.991   1.643   1.914  0.6338  0.4660  0.1924
   19DG     H22  436   2.091   1.406   1.964 -0.6749 -2.5587  1.5008
   19DG     H23  437   2.062   1.433   1.783 -2.3804 -0.7458 -1.6478
   20DG      C1  438   0.685   4.269   0.407  0.9441 -0.8621 -0.2795
   20DG      C2  439   0.911   3.730   0.768 -0.1053  0.0177 -0.0051
   20DG      H3  440   0.611   4.200   0.361 -0.6199  0.2599 -0.4653
   20DG      H4  441   0.710   4.340   0.339 -0.9949 -0.7496  0.2465
   20DG      H5  442   0.632   4.310   0.493 -2.3403 -2.1775 -0.8332
   20DG      H6  443   1.000   3.658   0.755 -1.2335 -0.0426  1.2794
   20DG      H7  444   0.885   3.729   0.871  1.6345 -0.5338  1.5999
   20DG      H8  445   0.841   3.693   0.696 -1.6081 -2.5704 -0.8613
   20DG      O9  446   0.798   4.196   0.467  0.6989  0.6541  0.3607
   20DG     O10  447   0.935   3.861   0.726 -0.1811 -0.0167 -0.0178
   20DG     C11  448   0.882   4.291   0.530  0.1192 -0.3145 -0.4340
   20DG     C12  449   1.042   3.926   0.803 -0.2024 -0.0330 -0.1594
   20DG     H13  450   0.831   4.336   0.611  0.3896 -0.0683 -1.6870
   20DG     H14  451   0.905   4.364   0.459 -1.5129 -3.1813 -0.6767
   20DG     H15  452   1.131   3.866   0.813 -0.9496  1.9294  2.8312
   20DG     H16  453   0.993   3.940   0.905  2.2318  1.0637  1.2922
   20DG     C17  454   0.997   4.227   0.593  0.5842  0.3306 -0.5871
   20DG     C18  455   1.084   4.053   0.726 -0.3722  0.5499 -0.2923
   20DG     O19  456   0.970   4.119   0.676  0.3736  0.6201 -0.0218
   20DG     H20  457   1.050   4.310   0.639  1.2488 -1.3898  2.1145
   20DG     H21  458   1.064   4.193   0.507  2.4333 -3.1809 -0.1316
   20DG     H22  459   1.151   4.109   0.794 -0.3623 -3.0373  2.7699
   20DG     H23  460   1.153   4.010   0.652  1.4547  2.5062  2.6798
   21DG      C1  461   4.331   0.071   4.087 -0.0292  0.4623  0.2180
   21DG      C2  462   3.957  -0.452   4.286 -0.0524  0.1187  0.8550
   21DG      H3  463   4.372   0.125   4.173  2.4004 -1.6337  0.7538
   21DG      H4  464   4.225   0.084   4.078  1.6635  0.5208  0.7467
   21DG      H5  465   4.376   0.098   3.998 -1.0404  1.7438  0.2304
   21DG      H6  466   3.889  -0.488   4.360  0.9474 -0.4527 -3.3233
   21DG      H7  467   3.899  -0.423   4.203 -0.4623  1.3823  2.4001
   21DG      H8  468   4.032  -0.531   4.262 -1.2944 -2.1179  0.0981
   21DG      O9  469   4.346  -0.071   4.105 -0.2199 -0.2464  0.2388
   21DG     O10  470   4.031  -0.339   4.328  0.3920  0.1837 -0.0072
   21DG     C11  471   4.441  -0.115   4.204 -0.3615  0.0550 -0.3329
   21DG     C12  472   4.097  -0.361   4.448 -0.2159 -0.3500 -0.7846
   21DG     H13  473   4.521  -0.046   4.205  1.1175 -1.4239 -2.3494
   21DG     H14  474   4.499  -0.204   4.169 -1.0217  0.9504 -1.1628
   21DG     H15  475   4.155  -0.454   4.442  0.8617  0.2403  1.3522
   21DG     H16  476   4.030  -0.359   4.532  2.3055  4.1655  0.0751
   21DG     C17  477   4.375  -0.132   4.340 -0.5016  0.5567  0.1219
   21DG     C18  478   4.211  -0.259   4.460 -0.4311  0.2299 -0.8355
   21DG     O19  479   4.275  -0.239   4.335  0.0155  0.2363 -0.0888
   21DG     H20  480   4.338  -0.035   4.358 -0.6325  0.3350  0.4858
   21DG     H21  481   4.448  -0.157   4.409  1.3794 -0.2185 -2.0302
   21DG     H22  482   4.181  -0.159   4.491 -0.6973  1.2693  0.0236
   21DG     H23  483   4.278  -0.300   4.535  1.7253 -0.4754  0.2232
   22DG      C1  484   2.064   5.486   2.860 -0.6246  0.5895 -0.2706
   22DG      C2  485   2.296   6.255   2.942 -0.0385 -0.3521 -0.2092
   22DG      H3  486   2.115   5.403   2.911  0.3652  0.5343  1.1378
   22DG      H4  487   2.052   5.474   2.755 -1.0650  1.4895  0.9636
   22DG      H5  488   1.957   5.474   2.889  1.9078  0.8546 -0.9878
   22DG      H6  489   2.301   6.330   2.860  2.7216  1.7578  0.9126
   22DG      H7  490   2.220   6.305   3.015 -1.7060  0.9650  0.7549
   22DG      H8  491   2.390   6.254   2.991  0.0905  0.3883 -1.0542
   22DG      O9  492   2.110   5.619   2.891 -0.5088 -0.2978 -0.2325
   22DG     O10  493   2.239   6.140   2.883 -0.6917  0.0614 -0.8944
   22DG     C11  494   2.245   5.634   2.851 -0.0511 -0.8562  0.3368
   22DG     C12  495   2.202   6.050   2.986 -0.3414  0.0935  0.8299
   22DG     H13  496   2.267   5.611   2.747 -1.0550  0.0747 -0.3618
   22DG     H14  497   2.310   5.567   2.914 -1.7452 -0.0668  1.8819
   22DG     H15  498   2.141   6.113   3.041  1.9503 -3.2204 -0.3450
   22DG     H16  499   2.279   6.025   3.054 -2.2605  0.0580 -1.2356
   22DG     C17  500   2.289   5.777   2.880  0.3334  0.1579 -0.1965
   22DG     C18  501   2.119   5.936   2.923 -0.6606 -0.0160  0.0155
   22DG     O19  502   2.191   5.859   2.820  0.2346 -0.2122 -0.8228
   22DG     H20  503   2.386   5.788   2.841 -1.3189  0.9963 -0.4679
   22DG     H21  504   2.298   5.793   2.987  1.3733  3.2705  0.0030
   22DG     H22  505   2.091   5.874   3.009 -2.4279 -1.9938  0.4489
   22DG     H23  506   2.029   5.966   2.881  0.2253 -1.4473 -0.2403
   23DG      C1  507   1.489   4.279   3.248  0.2658  0.4218  0.0497
   23DG      C2  508   2.012   4.325   2.632 -0.0374  0.0956  0.0307
   23DG      H3  509   1.418   4.254   3.165 -1.0652 -0.8727  1.2687
   23DG      H4  510   1.430   4.304   3.339  0.6076 -0.0420  0.7318
   23DG      H5  511   1.534   4.187   3.276 -0.3608  1.5943 -0.7406
   23DG      H6  512   2.117   4.343   2.622 -0.6198 -1.8643  1.3873
   23DG      H7  513   1.993   4.216   2.634 -0.9749  1.2356  0.8593
   23DG      H8  514   1.965   4.353   2.545 -2.1553 -0.0601 -0.1708
   23DG      O9  515   1.588   4.382   3.216 -0.4628 -0.4131 -0.3188
   23DG     O10  516   1.964   4.406   2.735  0.3238  0.5375 -0.5498
   23DG     C11  517   1.668   4.350   3.105  0.0781  0.1286  0.1619
   23DG     C12  518   2.054   4.421   2.844  0.2692  0.7928  0.3588
   23DG     H13  519   1.610   4.360   3.011  0.0485 -3.5816 -0.1102
   23DG     H14  520   1.684   4.240   3.088  1.1136  1.6400 -0.6715
   23DG     H15  521   2.148   4.474   2.817  2.3517  1.1966  0.6209
   23DG     H16  522   2.082   4.317   2.879 -1.6631 -0.0424  0.8247
   23DG     C17  523   1.804   4.414   3.107  0.6429  0.8061  0.1129
   23DG     C18  524   1.974   4.489   2.956  0.5751  0.1852 -0.1204
   23DG     O19  525   1.865   4.406   2.980  0.0893 -0.0664 -0.0790
   23DG     H20  526   1.874   4.386   3.185 -1.4918  0.6271 -2.7823
   23DG     H21  527   1.780   4.511   3.126  0.4767  0.4336  1.2849
   23DG     H22  528   2.033   4.491   3.044  1.7317 -0.0774  0.0964
   23DG     H23  529   1.954   4.590   2.926  1.5792  3.3630 -0.8394
   24DG      C1  530   2.689   2.971   0.051 -0.4690  0.6955  0.1329
   24DG      C2  531   3.068   2.664  -0.509  0.7135  0.3292 -0.3415
   24DG      H3  532   2.721   2.888   0.109 -1.4829  1.1965  0.9029
   24DG      H4  533   2.583   2.994   0.084 -0.9062 -0.9486 -1.0825
   24DG      H5  534   2.757   3.055   0.079 -1.5874  1.4610  3.6606
   24DG      H6  535   3.061   2.568  -0.457 -0.1218 -2.0001 -0.6322
   24DG      H7  536   3.086   2.652  -0.614  1.5671  0.9708 -0.3945
   24DG      H8  537   3.160   2.715  -0.472  0.6250  0.5364  0.4467
   24DG      O9  538   2.696   2.946  -0.091  0.2582  0.1025  0.5824
   24DG     O10  539   2.961   2.744  -0.465 -0.4287 -0.3225  0.3367
   24DG     C11  540   2.622   2.825  -0.121 -0.0645  0.8259 -0.5360
   24DG     C12  541   2.841   2.692  -0.522  0.4804 -0.2070  0.0262
   24DG     H13  542   2.527   2.818  -0.067  0.9654 -1.5763 -0.4248
   24DG     H14  543   2.680   2.739  -0.085  1.8794  0.1320 -0.1347
   24DG     H15  544   2.831   2.588  -0.507  1.1865 -3.1887 -2.9636
   24DG     H16  545   2.841   2.694  -0.632  1.7992  0.0860  3.5814
   24DG     C17  546   2.604   2.805  -0.274  0.0074 -0.2367 -0.5870
   24DG     C18  547   2.709   2.767  -0.474  0.1218 -0.1708  0.6718
   24DG     O19  548   2.722   2.771  -0.337  0.1501  0.0105 -0.1586
   24DG     H20  549   2.564   2.902  -0.307  0.8597 -2.0989  3.4198
   24DG     H21  550   2.524   2.742  -0.304  1.1173  0.4181  0.4040
   24DG     H22  551   2.711   2.867  -0.513 -1.8088  1.1879 -1.8634
   24DG     H23  552   2.627   2.707  -0.510  2.0040 -1.1460  1.8875
   25DG      C1  553   1.591   1.337   2.021  0.3112 -0.1730  0.4245
   25DG      C2  554   1.909   1.415   1.471  0.1052  0.0622  0.6334
   25DG      H3  555   1.676   1.269   2.014 -1.6869  1.1316  1.4113
   25DG      H4  556   1.521   1.282   2.084  0.9821 -1.1017  0.8190
   25DG      H5  557   1.621   1.431   2.052 -2.0159 -0.9719 -0.6288
   25DG      H6  558   1.964   1.489   1.531  1.4894 -1.1601 -0.1948
   25DG      H7  559   1.955   1.318   1.498 -0.7159  1.9234  0.5413
   25DG      H8  560   1.933   1.434   1.369  0.5450 -1.3893  1.9585
   25DG      O9  561   1.523   1.353   1.894  0.0267  0.6466 -0.1114
   25DG     O10  562   1.773   1.411   1.504  0.2885 -0.4412  0.1912
   25DG     C11  563   1.471   1.234   1.837  0.8082 -0.4835 -0.1387
   25DG     C12  564   1.704   1.306   1.434 -0.1630  0.5569  0.8952
   25DG     H13  565   1.379   1.196   1.887 -0.5682 -0.8208 -0.1981
   25DG     H14  566   1.536   1.150   1.863  2.4079 -3.0845  1.4607
   25DG     H15  567   1.761   1.215   1.448 -2.6495  1.8803  0.6004
   25DG     H16  568   1.701   1.323   1.324 -1.0754 -1.1494 -3.1364
   25DG     C17  569   1.440   1.246   1.693 -0.0768 -0.0993 -1.2485
   25DG     C18  570   1.561   1.303   1.491  0.3347 -0.1834  0.0687
   25DG     O19  571   1.566   1.289   1.635 -0.0725  0.1713  0.0037
   25DG     H20  572   1.363   1.318   1.677  0.8003 -0.6690 -1.7300
   25DG     H21  573   1.416   1.143   1.659  1.3413 -0.3237  0.1301
   25DG     H22  574   1.505   1.392   1.470  0.9602 -0.8814 -0.4060
   25DG     H23  575   1.519   1.222   1.434  1.3027 -0.8442 -1.1431
   26DG      C1  576   1.923   4.912   3.826  0.1571  0.0728  0.6362
   26DG      C2  577   1.563   5.073   4.410  0.0938  0.4333  0.2736
   26DG      H3  578   1.966   4.948   3.730  0.3693  1.2048  2.5773
   26DG      H4  579   1.855   4.834   3.809  2.2303 -0.1592  0.8907
   26DG      H5  580   1.999   4.879   3.896  3.2582  0.9435 -0.3192
   26DG      H6  581   1.533   5.144   4.489 -2.3590 -0.7308  1.5999
   26DG      H7  582   1.474   5.013   4.378 -0.1214  1.2380  0.6779
   26DG      H8  583   1.640   5.009   4.442  0.7251 -0.0320 -1.8710
   26DG      O9  584   1.869   5.013   3.901  0.0686 -0.5472 -0.6203
   26DG     O10  585   1.609   5.143   4.292  0.5369 -0.0121 -0.0899
   26DG     C11  586   1.957   5.127   3.910 -0.0329  0.3323  0.1791
   26DG     C12  587   1.700   5.251   4.305  0.5021  0.5900  0.9480
   26DG     H13  588   1.993   5.165   3.814  1.0857  3.2516 -1.2606
   26DG     H14  589   2.049   5.100   3.965 -2.6238 -2.1247  0.0900
   26DG     H15  590   1.785   5.213   4.365  2.3385  1.1198  0.6233
   26DG     H16  591   1.655   5.338   4.353  0.5900 -0.6084  2.2110
   26DG     C17  592   1.879   5.242   3.977 -0.1194  0.3691 -0.6458
   26DG     C18  593   1.739   5.299   4.163  0.1093  0.2634 -0.2251
   26DG     O19  594   1.812   5.191   4.095  0.6543  0.3004  0.7539
   26DG     H20  595   1.819   5.290   3.895  0.0009 -0.1959 -2.8760
   26DG     H21  596   1.957   5.312   4.012 -1.0528 -0.0564  1.8112
   26DG     H22  597   1.643   5.321   4.113 -2.1361  1.5077  4.9210
   26DG     H23  598   1.813   5.388   4.164  2.3257  2.7256  2.1758
   27DG      C1  599   5.138   4.056   1.777  0.1196  1.3024  0.4729
   27DG      C2  600   5.173   3.856   1.103 -0.2169 -0.8133  0.4655
   27DG      H3  601   5.138   3.974   1.849  1.2757 -0.5987  1.4106
   27DG      H4  602   5.035   4.072   1.740  0.2488  1.2148 -1.1849
   27DG      H5  603   5.165   4.142   1.832 -1.8165  0.2409 -0.0225
   27DG      H6  604   5.061   3.841   1.121 -0.1281 -2.1168 -0.0086
   27DG      H7  605   5.185   3.919   1.017 -1.4280  3.0872  2.8394
   27DG      H8  606   5.226   3.758   1.090  1.2008 -0.5914  1.1287
   27DG      O9  607   5.216   4.023   1.664 -0.0160  0.0721  0.0297
   27DG     O10  608   5.239   3.915   1.216 -0.0270  0.4032 -0.3344
   27DG     C11  609   5.355   4.011   1.683 -0.1473 -0.0465  0.4295
   27DG     C12  610   5.376   3.941   1.209 -0.3640 -0.4860  0.3667
   27DG     H13  611   5.383   3.903   1.705  0.2686 -1.3122 -0.6288
   27DG     H14  612   5.375   4.077   1.768 -1.5418 -0.9400 -1.3396
   27DG     H15  613   5.408   3.976   1.108 -3.4114  3.2537 -0.1602
   27DG     H16  614   5.432   3.852   1.221  2.7671  0.8732 -3.0219
   27DG     C17  615   5.430   4.066   1.559 -0.0570 -0.2549 -0.1140
   27DG     C18  616   5.423   4.036   1.322 -0.1601 -0.3900  0.2354
   27DG     O19  617   5.387   3.986   1.451 -0.0589 -0.4241  0.6406
   27DG     H20  618   5.540   4.068   1.562 -2.3840 -0.4402 -1.2874
   27DG     H21  619   5.403   4.173   1.537 -0.6296  1.0609  0.4183
   27DG     H22  620   5.532   4.024   1.318 -2.0303  3.5407  1.6113
   27DG     H23  621   5.401   4.139   1.300  0.6159  1.6567  3.4648
   28DG      C1  622   4.948   2.118   1.904  0.3185 -0.3913 -0.5916
   28DG      C2  623   4.569   2.458   1.469 -0.3115  0.1614 -0.2843
   28DG      H3  624   4.895   2.071   1.821 -2.7228 -0.0217 -1.0514
   28DG      H4  625   4.967   2.043   1.991 -0.3461  0.7456  1.1929
   28DG      H5  626   5.047   2.146   1.866 -2.0888  1.7411 -0.9653
   28DG      H6  627   4.475   2.411   1.438 -2.7657 -1.8484 -0.1029
   28DG      H7  628   4.546   2.563   1.450 -0.3824  0.2141 -0.5652
   28DG      H8  629   4.649   2.435   1.407 -2.5669  0.2965  0.3580
   28DG      O9  630   4.866   2.235   1.934 -0.2691 -0.0720  0.3719
   28DG     O10  631   4.607   2.429   1.599 -0.2971  0.9423 -0.4189
   28DG     C11  632   4.748   2.201   2.001  0.3030 -0.0190 -0.8065
   28DG     C12  633   4.503   2.438   1.691  0.1036 -0.5040  0.8156
   28DG     H13  634   4.764   2.158   2.101 -0.1922  0.5609  1.1766
   28DG     H14  635   4.697   2.125   1.946 -0.4237  1.0793  0.1526
   28DG     H15  636   4.451   2.346   1.676  0.2340 -0.7581 -2.3246
   28DG     H16  637   4.431   2.517   1.671 -1.0089  1.9100 -0.0151
   28DG     C17  638   4.653   2.321   2.000 -0.2416 -0.4819 -0.3041
   28DG     C18  639   4.550   2.450   1.833 -0.8890 -0.8837  0.6257
   28DG     O19  640   4.622   2.335   1.868  0.1470  0.3212  0.3629
   28DG     H20  641   4.709   2.414   2.038 -0.7984  0.0786  0.5983
   28DG     H21  642   4.572   2.296   2.062 -2.4768  1.7790 -0.3498
   28DG     H22  643   4.606   2.542   1.852  0.0958 -1.0130 -2.2868
   28DG     H23  644   4.456   2.453   1.895  0.3953 -0.8024  0.6010
   29DG      C1  645   2.024   2.633   5.426 -0.7943 -0.1077  0.0247
   29DG      C2  646   2.382   2.147   5.721 -0.6323  0.3713  1.0052
   29DG      H3  647   1.942   2.593   5.484  1.5040  0.7222  1.4058
   29DG      H4  648   1.979   2.699   5.354 -0.5501 -0.3953  0.7162
   29DG      H5  649   2.091   2.687   5.493 -1.8759  0.0168  1.5445
   29DG      H6  650   2.464   2.074   5.729  0.1885  0.0231 -1.8567
   29DG      H7  651   2.401   2.222   5.795 -0.5345 -2.1404 -0.5983
   29DG      H8  652   2.293   2.095   5.753 -0.3860  1.4170  2.1381
   29DG      O9  653   2.097   2.530   5.363 -0.2155  0.0092  0.2801
   29DG     O10  654   2.375   2.195   5.585 -0.1740 -0.2800 -0.3619
   29DG     C11  655   2.208   2.571   5.283 -0.3937 -0.5682 -0.3796
   29DG     C12  656   2.480   2.279   5.545 -0.6932 -0.9929 -0.2480
   29DG     H13  657   2.236   2.661   5.328 -2.6939  0.0312 -0.5645
   29DG     H14  658   2.179   2.601   5.177 -0.6198 -1.7682 -2.8216
   29DG     H15  659   2.566   2.216   5.539  1.3390 -0.8164  2.1312
   29DG     H16  660   2.500   2.361   5.618 -0.7081  3.0041 -0.0736
   29DG     C17  661   2.332   2.475   5.288  0.1685 -0.1750 -0.3203
   29DG     C18  662   2.454   2.342   5.408  0.0571 -0.1618  0.6212
   29DG     O19  663   2.340   2.423   5.420 -0.0798 -0.0522 -0.6707
   29DG     H20  664   2.415   2.534   5.269 -1.8889  0.1757  0.0356
   29DG     H21  665   2.312   2.404   5.212 -2.3177  0.2063  1.9254
   29DG     H22  666   2.541   2.407   5.386  3.7037 -1.0633  1.8590
   29DG     H23  667   2.451   2.247   5.349  0.2357  0.4058 -1.3419
   30DG      C1  668   4.389   2.499   4.498  0.3575 -0.6900  0.0819
   30DG      C2  669   4.038   2.079   4.090  0.2025  0.2760 -0.7366
   30DG      H3  670   4.490   2.504   4.550 -3.3711 -0.9096  3.7914
   30DG      H4  671   4.310   2.503   4.569 -0.3465  0.3583 -1.5602
   30DG      H5  672   4.386   2.591   4.442 -0.2823  3.5273  0.4887
   30DG      H6  673   4.028   2.126   3.994 -0.0944 -1.9266 -1.7005
   30DG      H7  674   4.024   1.976   4.080 -1.1279  2.5045  2.4195
   30DG      H8  675   3.961   2.118   4.157 -1.8463  2.2484  0.7352
   30DG      O9  676   4.388   2.380   4.422 -0.4519 -0.2536 -0.1130
   30DG     O10  677   4.164   2.099   4.155 -0.2030 -0.8111  0.0167
   30DG     C11  678   4.515   2.367   4.348  1.3236  0.1798 -0.1503
   30DG     C12  679   4.273   2.061   4.074 -0.2444  0.3195  0.1392
   30DG     H13  680   4.600   2.355   4.408  0.7234  0.7120  1.7975
   30DG     H14  681   4.546   2.447   4.288 -1.2224 -0.3917 -1.2081
   30DG     H15  682   4.269   2.130   3.986 -2.4997  0.4824 -2.5860
   30DG     H16  683   4.260   1.959   4.033 -0.8472  2.1201 -0.5537
   30DG     C17  684   4.516   2.235   4.278 -0.3990 -0.4879  0.0278
   30DG     C18  685   4.403   2.085   4.149  0.1876 -0.3939  0.0252
   30DG     O19  686   4.405   2.216   4.194  0.7033 -0.4858  0.4616
   30DG     H20  687   4.533   2.145   4.345  0.2065 -0.3618 -1.1711
   30DG     H21  688   4.611   2.240   4.222  0.6161 -1.5151  0.1634
   30DG     H22  689   4.401   2.008   4.235  0.3139 -2.9926  2.6133
   30DG     H23  690   4.482   2.061   4.073  1.0644  1.2167  1.1275
   31DG      C1  691   4.905   0.837   2.461  0.3580 -0.0099  0.8237
   31DG      C2  692   5.274   1.360   2.334  0.4466 -0.3307 -0.7997
   31DG      H3  693   4.916   0.729   2.456 -1.2457  1.3751 -0.6931
   31DG      H4  694   4.868   0.874   2.368 -1.8692  0.1106 -0.0916
   31DG      H5  695   4.827   0.857   2.532  0.2644 -0.3205 -1.6434
   31DG      H6  696   5.255   1.321   2.238  1.1039 -2.0247 -0.2357
   31DG      H7  697   5.185   1.407   2.373 -0.0115 -4.4265  1.4703
   31DG      H8  698   5.362   1.425   2.329  0.0967 -0.7923 -2.8487
   31DG      O9  699   5.015   0.907   2.490 -0.3166  0.6948 -0.0403
   31DG     O10  700   5.301   1.239   2.409  0.0469  0.4251  0.7628
   31DG     C11  701   5.065   0.876   2.620  0.2293 -0.2542 -0.5508
   31DG     C12  702   5.290   1.269   2.547 -0.4304 -0.3322 -0.0884
   31DG     H13  703   5.129   0.795   2.611 -2.6978  0.7684 -3.1082
   31DG     H14  704   4.986   0.855   2.691  1.5856  2.7914 -0.1692
   31DG     H15  705   5.184   1.295   2.562 -1.9266  0.8220  2.3877
   31DG     H16  706   5.354   1.353   2.570  0.3971 -1.6806 -2.3336
   31DG     C17  707   5.149   0.997   2.673  0.2845  0.7879 -0.5214
   31DG     C18  708   5.331   1.148   2.637  0.4622  0.0085  0.1184
   31DG     O19  709   5.261   1.027   2.595  0.2748 -0.1496 -0.0589
   31DG     H20  710   5.175   0.960   2.773  1.4664  0.6369 -0.2318
   31DG     H21  711   5.083   1.083   2.693 -2.4617 -1.5197  2.3896
   31DG     H22  712   5.432   1.127   2.623 -1.4494 -2.4193 -0.8472
   31DG     H23  713   5.316   1.171   2.738  1.1437 -0.8827 -0.9673
   32DG      C1  714   3.932   3.066   3.212 -0.1433  0.8071 -0.2973
   32DG      C2  715   4.559   2.748   3.149 -0.7866  0.1777  0.6615
   32DG      H3  716   3.835   3.072   3.255  0.5112  1.4362  0.0786
   32DG      H4  717   3.918   3.062   3.104 -0.8181 -0.0590 -0.2478
   32DG      H5  718   3.972   3.164   3.239  1.3479 -0.0895  0.0766
   32DG      H6  719   4.623   2.810   3.208 -0.2707 -1.8195 -2.2005
   32DG      H7  720   4.594   2.645   3.159 -0.4953 -0.7517 -1.3692
   32DG      H8  721   4.584   2.766   3.041  1.8111 -2.2815 -2.3085
   32DG      O9  722   4.014   2.948   3.233 -0.7902 -0.6353 -0.7657
   32DG     O10  723   4.428   2.745   3.195  0.0504  0.0695  0.4487
   32DG     C11  724   3.994   2.898   3.371  0.0943 -0.8298 -0.2259
   32DG     C12  725   4.420   2.698   3.331 -0.0428 -0.0113  1.0172
   32DG     H13  726   3.884   2.881   3.376 -2.0043  3.7035  2.0165
   32DG     H14  727   4.021   2.976   3.445  0.4285  0.0780 -1.9417
   32DG     H15  728   4.457   2.767   3.405 -0.4974 -1.6352  0.6893
   32DG     H16  729   4.491   2.619   3.353 -0.3378 -2.4230 -0.0296
   32DG     C17  730   4.063   2.765   3.385 -0.3885  0.0063 -0.3927
   32DG     C18  731   4.276   2.672   3.380  0.5309 -0.5166  0.4232
   32DG     O19  732   4.197   2.784   3.348 -0.2884 -0.0064  0.2615
   32DG     H20  733   4.021   2.698   3.303  1.1379 -0.6236 -1.3883
   32DG     H21  734   4.044   2.717   3.483  0.1997  0.3686 -0.3588
   32DG     H22  735   4.235   2.586   3.323 -0.9655 -0.5197 -2.5415
   32DG     H23  736   4.282   2.654   3.487  1.8645  0.8615  3.2036
   33DG      C1  737   3.499   4.273   2.825  0.6739 -0.3834 -0.7153
   33DG      C2  738   3.479   4.930   3.070  0.5722 -0.2489 -0.2660
   33DG      H3  739   3.547   4.337   2.751 -2.4827 -1.8351 -2.2263
   33DG      H4  740   3.395   4.245   2.794  0.5737 -1.5734 -0.9376
   33DG      H5  741   3.545   4.170   2.824 -1.0383  1.2358 -1.5227
   33DG      H6  742   3.415   4.962   3.148 -0.2978  1.1945 -0.5308
   33DG      H7  743   3.573   4.986   3.080  0.5274  0.6633  0.0528
   33DG      H8  744   3.427   4.963   2.976 -0.5926  2.4116 -0.0959
   33DG      O9  745   3.489   4.330   2.950  0.1148  0.0357  0.4657
   33DG     O10  746   3.497   4.791   3.081  0.1328 -0.4956  0.6231
   33DG     C11  747   3.601   4.295   3.035 -0.1235 -0.3724 -0.7833
   33DG     C12  748   3.580   4.760   3.198 -0.1194 -0.6080 -0.3113
   33DG     H13  749   3.694   4.305   2.990  0.7137 -0.3964  0.0149
   33DG     H14  750   3.594   4.189   3.062 -1.2146  2.4559 -2.8677
   33DG     H15  751   3.560   4.823   3.293  1.0818  1.4565  3.2308
   33DG     H16  752   3.688   4.791   3.186 -1.6902  0.8745  0.9511
   33DG     C17  753   3.596   4.379   3.159 -0.0553 -0.6212  0.1760
   33DG     C18  754   3.582   4.610   3.236  0.3260 -0.0471  0.1395
   33DG     O19  755   3.583   4.516   3.130 -0.2480 -0.4087  1.1226
   33DG     H20  756   3.684   4.365   3.219  2.2335  0.3514 -1.8968
   33DG     H21  757   3.518   4.334   3.220 -0.6247  1.8379  1.3246
   33DG     H22  758   3.666   4.595   3.306 -0.4085  0.2286  2.3253
   33DG     H23  759   3.499   4.585   3.296 -1.8903 -2.1399  0.2716
   34DG      C1  760   4.465   1.207   2.006 -0.8769  1.2990  0.3099
   34DG      C2  761   3.986   1.340   1.742 -0.2490  0.6314 -0.2952
   34DG      H3  762   4.368   1.210   1.964  2.0138  0.2065 -0.0706
   34DG      H4  763   4.493   1.104   2.032  0.1749  0.1124  1.9176
   34DG      H5  764   4.530   1.256   1.942 -1.8704 -1.1104 -2.1394
   34DG      H6  765   4.056   1.249   1.729  0.1091  0.7332  0.8225
   34DG      H7  766   3.879   1.311   1.735 -0.5791  0.4967  1.0225
   34DG      H8  767   3.999   1.413   1.660  1.3914 -1.0473 -1.1955
   34DG      O9  768   4.484   1.268   2.134 -0.5022 -0.1943  0.2708
   34DG     O10  769   4.015   1.418   1.860 -0.2993 -0.6952 -0.0670
   34DG     C11  770   4.455   1.407   2.134  0.1527 -0.3017 -0.3395
   34DG     C12  771   4.005   1.327   1.971 -1.3759 -0.6475 -0.0813
   34DG     H13  772   4.469   1.456   2.043  0.3152  1.6275 -1.3944
   34DG     H14  773   4.524   1.454   2.205 -0.4178  1.2513 -1.8662
   34DG     H15  774   4.047   1.229   1.955 -4.1890  0.1756  0.3832
   34DG     H16  775   3.900   1.310   1.989 -0.0236  1.8288  2.0697
   34DG     C17  776   4.309   1.417   2.181  0.5533 -0.2335 -0.1444
   34DG     C18  777   4.073   1.382   2.098  0.8998  0.2038 -0.1722
   34DG     O19  778   4.219   1.379   2.073  0.5098  0.7658  0.2018
   34DG     H20  779   4.284   1.522   2.197  0.4646  1.0007 -0.3452
   34DG     H21  780   4.276   1.361   2.268 -0.7498 -0.0053  0.2786
   34DG     H22  781   4.047   1.483   2.133 -0.2968  0.0238  2.2978
   34DG     H23  782   4.052   1.321   2.179 -1.9756  3.2421 -0.8182
   35DG      C1  783   2.153   3.571   1.216  0.2439 -0.1396  0.0329
   35DG      C2  784   1.819   3.649   0.673 -0.9850 -0.6420 -0.2200
   35DG      H3  785   2.078   3.628   1.267 -0.2426 -1.3957 -2.1176
   35DG      H4  786   2.238   3.568   1.278  1.9909 -1.1324 -2.1295
   35DG      H5  787   2.120   3.465   1.214 -0.3930  0.2902 -1.2358
   35DG      H6  788   1.773   3.561   0.725  0.6035  0.0009  2.0840
   35DG      H7  789   1.776   3.743   0.702  1.6192  0.5540  1.6322
   35DG      H8  790   1.793   3.646   0.565  0.6671  0.5401  0.4096
   35DG      O9  791   2.183   3.617   1.083 -0.1035 -0.0229  0.2990
   35DG     O10  792   1.960   3.657   0.704  0.0771 -0.1348  0.6063
   35DG     C11  793   2.259   3.739   1.074 -0.2949  0.1269 -0.2875
   35DG     C12  794   2.033   3.767   0.648 -0.7383  0.2155 -0.0500
   35DG     H13  795   2.352   3.716   1.124 -0.5785 -1.5849  0.3416
   35DG     H14  796   2.209   3.819   1.128  0.4812  1.7919 -3.1710
   35DG     H15  797   1.977   3.857   0.667 -0.7035 -1.0843  1.0025
   35DG     H16  798   2.048   3.772   0.545  0.1288  2.2958 -1.7254
   35DG     C17  799   2.274   3.770   0.928 -0.6868 -0.1413 -0.6990
   35DG     C18  800   2.170   3.772   0.723  0.3917  0.3222 -0.1337
   35DG     O19  801   2.158   3.744   0.861  0.2012  0.5766 -0.1739
   35DG     H20  802   2.361   3.735   0.877 -0.7591  1.0526 -0.9017
   35DG     H21  803   2.288   3.877   0.926  1.3908 -1.2585  0.6112
   35DG     H22  804   2.234   3.693   0.677  1.3969  0.7438 -0.1258
   35DG     H23  805   2.216   3.870   0.702 -0.8180  1.3760  0.2765
   36DG      C1  806   0.899   0.924   0.773 -0.2909  0.5506 -0.5995
   36DG      C2  807   0.897   0.599   1.107  0.4313  0.2795  0.3019
   36DG      H3  808   0.974   0.956   0.845  0.0419  0.1920 -0.2338
   36DG      H4  809   0.881   1.008   0.708 -0.2371 -2.4361 -2.2734
   36DG      H5  810   0.949   0.848   0.721  0.9058  0.2694  1.6804
   36DG      H6  811   0.971   0.673   1.133 -2.1261  0.0267  0.6882
   36DG      H7  812   0.928   0.494   1.127  1.2406 -2.2923 -1.1407
   36DG      H8  813   0.875   0.604   1.002 -0.2574 -0.5114  2.7731
   36DG      O9  814   0.781   0.867   0.833 -0.2351  0.1736  0.3029
   36DG     O10  815   0.783   0.638   1.185  0.6363 -0.2243  0.1726
   36DG     C11  816   0.705   0.970   0.899 -0.4127 -0.0664 -1.4846
   36DG     C12  817   0.658   0.589   1.140  0.6058  0.6510  0.4656
   36DG     H13  818   0.695   1.051   0.835  1.7470  1.1130  2.8917
   36DG     H14  819   0.763   1.002   0.984 -0.6828  0.6499 -0.0307
   36DG     H15  820   0.589   0.596   1.228 -0.6110  1.4256  0.2314
   36DG     H16  821   0.675   0.484   1.114  0.3248  0.0516  0.9169
   36DG     C17  822   0.572   0.899   0.961 -0.6155 -0.3299  0.2036
   36DG     C18  823   0.610   0.668   1.012  0.0669 -0.3006 -0.1150
   36DG     O19  824   0.606   0.804   1.063 -0.3048  0.2131  0.3871
   36DG     H20  825   0.522   0.845   0.879 -0.7737 -0.5005  1.2825
   36DG     H21  826   0.511   0.984   1.004 -1.9733  2.6836  1.6475
   36DG     H22  827   0.678   0.644   0.928 -2.2079 -2.3704  1.3264
   36DG     H23  828   0.507   0.635   0.987 -0.7616 -1.1861  0.0546
   37DG      C1  829   4.151   0.898   2.737 -0.4740  0.2444 -0.3554
   37DG      C2  830   4.481   1.353   3.059 -0.8729  0.2411 -0.0652
   37DG      H3  831   4.135   0.796   2.757  2.4366  0.0240 -0.2825
   37DG      H4  832   4.227   0.899   2.659 -0.2652  1.5755 -0.2631
   37DG      H5  833   4.056   0.944   2.699 -1.8103  1.3966 -0.2220
   37DG      H6  834   4.572   1.362   3.129 -0.7313  1.6853  0.9453
   37DG      H7  835   4.502   1.396   2.958 -0.6520 -1.5945 -0.5342
   37DG      H8  836   4.397   1.406   3.100 -4.4818 -1.1664  1.5915
   37DG      O9  837   4.194   0.974   2.845 -0.3816  0.2989 -0.0729
   37DG     O10  838   4.445   1.220   3.064 -0.0218  0.3319 -0.8433
   37DG     C11  839   4.134   0.936   2.959  0.4579  0.6874 -0.0143
   37DG     C12  840   4.410   1.178   3.201 -0.1907  0.3167  0.5737
   37DG     H13  841   4.140   0.827   2.990 -1.1744  2.4269  0.2351
   37DG     H14  842   4.031   0.969   2.958 -1.9512 -1.4674  0.9773
   37DG     H15  843   4.315   1.223   3.224  0.4631 -2.6391 -1.3561
   37DG     H16  844   4.489   1.209   3.267  0.8382 -0.7312  0.2564
   37DG     C17  845   4.189   1.007   3.091 -0.4745 -0.3996  0.2603
   37DG     C18  846   4.404   1.027   3.185 -0.5865 -0.8200 -0.1098
   37DG     O19  847   4.326   0.984   3.078 -0.6744  0.3709 -0.4349
   37DG     H20  848   4.156   0.978   3.193  0.6652 -0.5276  1.0482
   37DG     H21  849   4.172   1.118   3.083  0.0196  0.3496  0.9110
   37DG     H22  850   4.504   0.988   3.159  1.4959 -0.2192  3.7680
   37DG     H23  851   4.373   0.991   3.281  1.1626  0.1753 -1.8891
   38DG      C1  852   0.434   2.641   4.841  0.5308 -0.3049 -0.1293
   38DG      C2  853   0.049   2.894   4.341 -0.8637 -1.0049 -0.4081
   38DG      H3  854   0.325   2.620   4.843 -1.8469  0.4137  0.0950
   38DG      H4  855   0.444   2.730   4.900  0.0983 -1.5059  1.0677
   38DG      H5  856   0.496   2.560   4.881  0.8262  1.8566 -2.6903
   38DG      H6  857   0.039   2.939   4.240  0.1451 -1.0270  1.2475
   38DG      H7  858  -0.031   2.822   4.363 -1.7437 -3.3921 -0.6901
   38DG      H8  859   0.025   2.969   4.409 -0.0859  0.4916  1.9289
   38DG      O9  860   0.478   2.669   4.707  0.0035 -0.5858 -0.4072
   38DG     O10  861   0.175   2.844   4.353  0.0513 -0.1487  0.2866
   38DG     C11  862   0.470   2.549   4.628 -0.6495 -0.0875  0.1322
   38DG     C12  863   0.204   2.732   4.262  0.4284 -0.2662 -0.1484
   38DG     H13  864   0.382   2.494   4.660 -1.8496  0.3853  2.6387
   38DG     H14  865   0.556   2.496   4.661  1.9355  3.0064 -0.4043
   38DG     H15  866   0.216   2.773   4.165  1.3716 -0.1370  1.1777
   38DG     H16  867   0.136   2.645   4.249  0.6240  2.8397  1.4267
   38DG     C17  868   0.481   2.590   4.477 -0.2890  0.0388 -0.6859
   38DG     C18  869   0.345   2.686   4.303  0.3470 -0.1415 -0.7847
   38DG     O19  870   0.355   2.643   4.437  0.2777 -0.2124  0.3014
   38DG     H20  871   0.494   2.493   4.427 -0.9778  0.1833 -0.4069
   38DG     H21  872   0.564   2.646   4.441  0.8796 -1.6280  1.1474
   38DG     H22  873   0.359   2.610   4.226 -1.5433 -1.8177  0.1327
   38DG     H23  874   0.397   2.769   4.280  0.4801 -2.5489  0.5866
   39DG      C1  875   1.414   3.312   1.102  0.0334 -0.2724 -0.4881
   39DG      C2  876   1.492   3.884   0.631 -0.7504  0.2802  0.4975
   39DG      H3  877   1.458   3.286   1.197  1.0356 -0.8188 -1.8925
   39DG      H4  878   1.488   3.273   1.037 -1.5148 -1.3353  0.2667
   39DG      H5  879   1.322   3.260   1.088 -0.3767  0.3269 -2.1590
   39DG      H6  880   1.601   3.896   0.648  1.7202  0.9839  0.9383
   39DG      H7  881   1.484   3.804   0.565 -1.1664 -0.3884  0.7204
   39DG      H8  882   1.450   3.974   0.587  2.8433  0.3508  3.2436
   39DG      O9  883   1.380   3.451   1.093 -0.5685 -0.3872 -0.1745
   39DG     O10  884   1.436   3.839   0.753  0.7256 -0.0318  0.3032
   39DG     C11  885   1.339   3.494   0.966 -0.0200  0.9872 -0.1863
   39DG     C12  886   1.477   3.900   0.871 -0.1243 -0.7973 -0.6273
   39DG     H13  887   1.243   3.452   0.938 -0.6376  1.3850  0.0370
   39DG     H14  888   1.415   3.466   0.900 -0.1654 -1.7027 -0.1074
   39DG     H15  889   1.459   4.008   0.863 -1.3441 -1.8452 -1.2711
   39DG     H16  890   1.583   3.883   0.890 -1.8625  1.0411 -2.0209
   39DG     C17  891   1.302   3.642   0.958 -0.0357 -0.1834  0.4767
   39DG     C18  892   1.396   3.854   0.993  0.4239 -0.1849 -0.1997
   39DG     O19  893   1.409   3.713   1.010  0.7924 -0.1811 -0.7803
   39DG     H20  894   1.208   3.652   1.014 -0.0844 -0.4943 -2.6103
   39DG     H21  895   1.289   3.674   0.852 -0.1748 -2.3667 -1.3302
   39DG     H22  896   1.448   3.896   1.080 -1.0073 -1.1284  2.9211
   39DG     H23  897   1.288   3.879   0.996 -0.0873  0.5046 -0.1578
   40DG      C1  898   5.394   5.221   1.912 -0.7210  0.4191 -0.1592
   40DG      C2  899   4.755   5.429   2.196 -0.2230  0.2772 -0.1181
   40DG      H3  900   5.388   5.121   1.957  2.7709  1.9599 -0.6107
   40DG      H4  901   5.491   5.266   1.941  0.3669  1.4110  0.1322
   40DG      H5  902   5.391   5.208   1.802 -0.9282 -0.0565 -0.4380
   40DG      H6  903   4.743   5.344   2.266  0.4987 -1.7097  0.4486
   40DG      H7  904   4.769   5.513   2.265 -1.7693  0.6965 -1.4186
   40DG      H8  905   4.661   5.442   2.143  0.7147 -1.6594  0.0001
   40DG      O9  906   5.287   5.309   1.954 -0.1102  0.1238  0.2756
   40DG     O10  907   4.863   5.412   2.109  0.1228  0.0827 -0.0212
   40DG     C11  908   5.293   5.437   1.886 -0.2531  0.0592  0.0293
   40DG     C12  909   4.867   5.506   2.005 -0.1279  0.3543 -0.3850
   40DG     H13  910   5.248   5.415   1.782 -1.5172 -2.5224  0.7132
   40DG     H14  911   5.395   5.466   1.876 -2.7215 -0.7387 -1.0836
   40DG     H15  912   4.869   5.602   2.041  0.9132 -2.6874 -0.3743
   40DG     H16  913   4.771   5.494   1.949  0.8755 -0.2142 -2.2633
   40DG     C17  914   5.215   5.539   1.964 -0.0830  0.4059 -0.3738
   40DG     C18  915   4.986   5.479   1.920  0.7814  0.0881  0.1914
   40DG     O19  916   5.094   5.494   2.013 -0.2109 -0.4392  0.1700
   40DG     H20  917   5.188   5.633   1.912  2.4846 -0.5619 -3.1249
   40DG     H21  918   5.271   5.582   2.046 -3.0554  3.5650 -0.4454
   40DG     H22  919   4.985   5.373   1.874 -1.1822  0.2580 -1.4105
   40DG     H23  920   4.992   5.561   1.841 -0.8403  0.1367  0.7393
   41DG      C1  921   0.658   3.593   3.120  0.2801 -0.0835  0.2007
   41DG      C2  922   0.229   3.094   2.792  1.0036  0.3926 -0.8339
   41DG      H3  923   0.597   3.686   3.128 -1.8365 -3.0893  1.3112
   41DG      H4  924   0.763   3.604   3.136  1.2630  0.6669  0.0478
   41DG      H5  925   0.627   3.514   3.193  0.1842 -0.1419  0.1440
   41DG      H6  926   0.159   3.036   2.848  1.2993  1.1779 -0.9659
   41DG      H7  927   0.160   3.113   2.707  2.3805 -2.0586  0.4304
   41DG      H8  928   0.316   3.033   2.758  0.0742 -0.0287 -1.2730
   41DG      O9  929   0.630   3.558   2.992  0.3817  0.0700  0.0073
   41DG     O10  930   0.270   3.212   2.871  0.2997 -0.2680  0.3257
   41DG     C11  931   0.687   3.438   2.952  0.2604 -0.0738 -0.1240
   41DG     C12  932   0.338   3.166   2.985  0.2893  0.3189  0.3339
   41DG     H13  933   0.795   3.426   2.983  1.8042  0.0324  1.0446
   41DG     H14  934   0.685   3.438   2.841 -3.4870 -0.3227  0.2911
   41DG     H15  935   0.423   3.110   2.955  0.6228  2.9522 -0.6622
   41DG     H16  936   0.269   3.099   3.045 -0.7719  0.8558  1.9770
   41DG     C17  937   0.617   3.313   3.003  0.1234  0.0570  0.0563
   41DG     C18  938   0.385   3.277   3.075 -0.2390 -0.0456 -0.2520
   41DG     O19  939   0.480   3.354   3.004  0.2375 -0.3082  0.1519
   41DG     H20  940   0.642   3.283   3.106 -2.9382 -1.0484 -1.1010
   41DG     H21  941   0.629   3.229   2.935  2.9868 -0.7140  1.5899
   41DG     H22  942   0.298   3.338   3.101 -0.4101  1.1777  0.4129
   41DG     H23  943   0.431   3.236   3.168 -0.8936  0.8687 -0.3716
   42DG      C1  944   4.550   2.117   0.679 -0.0977  0.3048  0.3906
   42DG      C2  945   5.177   1.841   0.361  0.6780  0.9067 -0.2989
   42DG      H3  946   4.474   2.054   0.639 -0.2955  0.7049 -0.9518
   42DG      H4  947   4.559   2.200   0.612 -1.4374 -0.6078 -0.5193
   42DG      H5  948   4.513   2.164   0.769 -2.1720  3.4963 -0.6989
   42DG      H6  949   5.247   1.789   0.427  1.0650  0.8890 -2.4532
   42DG      H7  950   5.103   1.768   0.344 -2.1031 -0.1616 -0.7824
   42DG      H8  951   5.234   1.852   0.266 -1.5240  2.6932 -1.1670
   42DG      O9  952   4.664   2.032   0.702  0.0061 -0.4417 -0.2846
   42DG     O10  953   5.126   1.963   0.408  0.0715 -0.2325 -0.7507
   42DG     C11  954   4.708   1.954   0.589 -0.6814  0.4228  0.1114
   42DG     C12  955   5.043   2.028   0.321  0.5932 -0.4421  0.2755
   42DG     H13  956   4.615   1.896   0.561  0.5925  2.1206 -0.4606
   42DG     H14  957   4.781   1.887   0.628 -0.8988 -1.2726  0.8285
   42DG     H15  958   4.977   1.951   0.273 -0.2697 -1.4325  1.6465
   42DG     H16  959   5.109   2.075   0.250 -0.2976  2.4581 -0.3890
   42DG     C17  960   4.761   2.027   0.466 -0.1123  0.7776  0.2657
   42DG     C18  961   4.964   2.130   0.401 -0.1163  1.1197  0.0156
   42DG     O19  962   4.887   2.078   0.510  0.1048  0.1111 -0.1098
   42DG     H20  963   4.711   2.125   0.444 -0.8022 -2.7589 -1.4290
   42DG     H21  964   4.762   1.956   0.377  0.4902 -1.1938 -1.9460
   42DG     H22  965   5.042   2.193   0.441 -1.4361  1.1590 -0.6597
   42DG     H23  966   4.924   2.204   0.338  2.4863 -3.7765  0.3267
   43DG      C1  967   2.797   1.668   1.911 -0.0907 -0.7356 -0.3431
   43DG      C2  968   2.466   2.039   2.301  0.4711  1.6718  0.4140
   43DG      H3  969   2.804   1.589   1.844 -0.0315  0.2903  0.8986
   43DG      H4  970   2.864   1.651   1.996  1.6687 -0.4736 -1.0535
   43DG      H5  971   2.829   1.748   1.842  0.4701  0.7372 -2.1561
   43DG      H6  972   2.383   2.081   2.355  1.1560  2.7624 -0.5829
   43DG      H7  973   2.563   2.034   2.355  1.3256  0.2591 -0.6693
   43DG      H8  974   2.474   2.106   2.216  1.0876 -1.5529  1.9523
   43DG      O9  975   2.659   1.681   1.961 -0.4575 -0.2108  0.5012
   43DG     O10  976   2.438   1.913   2.252 -0.0122  0.4240  0.0702
   43DG     C11  977   2.563   1.684   1.857 -0.4002 -0.4538  0.8579
   43DG     C12  978   2.318   1.911   2.181  0.3543  0.3631 -0.0198
   43DG     H13  979   2.589   1.598   1.783 -2.0949 -1.5776 -1.1987
   43DG     H14  980   2.586   1.770   1.794 -0.7811 -0.2285  0.3645
   43DG     H15  981   2.296   1.984   2.101 -1.2842 -2.1446 -3.1311
   43DG     H16  982   2.230   1.926   2.246 -0.1752  0.5374  1.1912
   43DG     C17  983   2.422   1.684   1.921  0.0420  0.1237 -0.0428
   43DG     C18  984   2.318   1.780   2.106 -0.7091 -0.1312 -0.0790
   43DG     O19  985   2.443   1.768   2.032  0.0277 -0.1227 -0.2572
   43DG     H20  986   2.387   1.585   1.956 -1.2194 -0.6932  0.6798
   43DG     H21  987   2.346   1.723   1.848  1.8288  0.1542 -0.3119
   43DG     H22  988   2.318   1.689   2.168  0.3814  0.3684  1.5333
   43DG     H23  989   2.231   1.782   2.047  2.6114 -1.4466 -2.1414
   44DG      C1  990   0.056   3.949   3.352  0.1009 -0.4303  0.4334
   44DG      C2  991   0.226   4.572   3.424 -0.0042  0.6255  0.6639
   44DG      H3  992   0.109   3.865   3.296 -1.6672  0.5223 -0.1998
   44DG      H4  993  -0.013   3.905   3.418 -0.2897  0.7375 -1.9613
   44DG      H5  994   0.138   3.989   3.415 -1.8585 -1.2900  0.0910
   44DG      H6  995   0.150   4.572   3.503 -1.2718  2.3653  0.9525
   44DG      H7  996   0.326   4.603   3.459  1.7472 -0.1658  1.4183
   44DG      H8  997   0.188   4.651   3.353 -1.5747  0.3242  0.4849
   44DG      O9  998   0.001   4.045   3.268  0.2508 -0.0285 -0.6438
   44DG     O10  999   0.230   4.444   3.366  0.4658 -0.0893  0.1713
   44DG     C11 1000   0.070   4.058   3.150 -0.2342 -0.1254  0.6830
   44DG     C12 1001   0.296   4.457   3.238  0.6681  0.1339 -0.3279
   44DG     H13 1002   0.010   4.124   3.092  0.3097 -0.4165 -2.8146
   44DG     H14 1003   0.073   3.962   3.095  1.5793 -1.5871 -0.8552
   44DG     H15 1004   0.387   4.513   3.239 -0.5272 -1.0569  1.7717
   44DG     H16 1005   0.234   4.497   3.157 -2.3895 -2.4981 -2.2062
   44DG     C17 1006   0.212   4.113   3.158  0.3263  0.5646  0.6699
   44DG     C18 1007   0.326   4.314   3.199  0.4470 -0.5339  0.1851
   44DG     O19 1008   0.208   4.240   3.214 -0.8737  0.2181  0.4094
   44DG     H20 1009   0.257   4.119   3.056 -1.9604 -0.6297 -0.6851
   44DG     H21 1010   0.275   4.056   3.222  0.0839  0.3548 -2.5321
   44DG     H22 1011   0.363   4.298   3.102 -0.9509  0.4369  3.1064
   44DG     H23 1012   0.399   4.281   3.274  1.1376  1.1264 -0.6582
   45DG      C1 1013   5.160   4.760   0.430  0.8386  0.6655 -0.7422
   45DG      C2 1014   5.206   5.064   1.022 -0.0362 -0.1904  0.3130
   45DG      H3 1015   5.083   4.685   0.460  0.1503  1.6327 -1.1537
   45DG      H4 1016   5.208   4.735   0.336 -0.7973 -0.6003 -0.6302
   45DG      H5 1017   5.103   4.848   0.404 -0.9096  2.3209  1.2119
   45DG      H6 1018   5.263   5.100   1.113  1.1071  0.0973 -0.8886
   45DG      H7 1019   5.191   5.142   0.953  1.9155  0.3651 -0.2803
   45DG      H8 1020   5.116   5.020   1.063  1.4629  0.1755 -2.9479
   45DG      O9 1021   5.255   4.780   0.533  0.0760  0.8258  0.1069
   45DG     O10 1022   5.296   4.974   0.960  0.3523 -0.2945  0.5833
   45DG     C11 1023   5.292   4.657   0.588 -0.7633  0.2690  0.3922
   45DG     C12 1024   5.291   4.849   1.017 -0.2091 -0.5194 -0.1507
   45DG     H13 1025   5.338   4.603   0.509 -0.2455 -1.0165  2.5744
   45DG     H14 1026   5.213   4.598   0.620  1.6675  0.7321 -1.6199
   45DG     H15 1027   5.186   4.811   1.025  2.8012 -0.0602  0.4629
   45DG     H16 1028   5.339   4.858   1.120  0.0537 -0.2676  0.8367
   45DG     C17 1029   5.387   4.680   0.706  0.7562 -0.2132  0.4838
   45DG     C18 1030   5.368   4.761   0.926  0.5549  0.1654 -1.0706
   45DG     O19 1031   5.318   4.758   0.799  0.1387  0.0279  0.2093
   45DG     H20 1032   5.484   4.720   0.680  0.4953  1.7539 -0.6879
   45DG     H21 1033   5.407   4.573   0.738  0.4370  2.0958  1.9087
   45DG     H22 1034   5.477   4.778   0.934 -0.2228 -0.3251  0.7277
   45DG     H23 1035   5.364   4.664   0.970 -0.7027 -1.6174  0.7847
   46DG      C1 1036   1.812   3.598   4.924 -1.0491  0.1627 -0.1548
   46DG      C2 1037   1.293   3.708   4.440 -0.1392  1.2182  0.0804
   46DG      H3 1038   1.797   3.575   5.020  1.6772  0.6682  1.1519
   46DG      H4 1039   1.828   3.705   4.911 -0.1341  0.2310 -0.3723
   46DG      H5 1040   1.913   3.554   4.889  1.5001 -2.2295  2.1563
   46DG      H6 1041   1.326   3.809   4.457 -1.3302  0.3979 -1.4079
   46DG      H7 1042   1.288   3.705   4.329  0.1491 -0.6917  1.6955
   46DG      H8 1043   1.197   3.697   4.485  1.5611  0.6968  2.0962
   46DG      O9 1044   1.704   3.558   4.837 -0.1635 -0.3793 -0.2191
   46DG     O10 1045   1.386   3.619   4.490  0.1754  1.0515 -0.6769
   46DG     C11 1046   1.649   3.429   4.862  0.1981 -0.0910  0.4479
   46DG     C12 1047   1.355   3.484   4.480 -0.1270 -0.0282  0.2428
   46DG     H13 1048   1.568   3.424   4.930  0.0051  1.2660 -0.5523
   46DG     H14 1049   1.725   3.366   4.896  2.2645  0.5663 -1.4499
   46DG     H15 1050   1.325   3.455   4.376  0.7074  0.8223 -0.6306
   46DG     H16 1051   1.266   3.455   4.540 -1.5659 -1.8358 -0.3026
   46DG     C17 1052   1.604   3.369   4.725  1.0080  0.4671  0.2699
   46DG     C18 1053   1.482   3.413   4.536 -0.0521 -0.4478  0.2713
   46DG     O19 1054   1.517   3.459   4.664 -0.7508 -0.3836 -0.2381
   46DG     H20 1055   1.557   3.275   4.758 -0.5650 -1.2854  2.7798
   46DG     H21 1056   1.692   3.360   4.671 -0.5121 -0.4495 -0.3946
   46DG     H22 1057   1.471   3.299   4.525 -1.2313 -2.9682 -0.8014
   46DG     H23 1058   1.565   3.437   4.474 -0.9149 -0.5450 -1.8842
   47DG      C1 1059   0.358   2.254   3.832  0.3235 -0.3893  0.2230
   47DG      C2 1060  -0.047   2.279   4.253  0.4430  0.0153 -0.2861
   47DG      H3 1061   0.314   2.208   3.748  0.5658  3.2541 -1.0016
   47DG      H4 1062   0.465   2.261   3.805 -1.9869 -0.0599  1.0009
   47DG      H5 1063   0.318   2.352   3.856 -0.9443 -2.4862 -0.1274
   47DG      H6 1064  -0.125   2.268   4.177  0.1501 -2.2136 -0.6510
   47DG      H7 1065  -0.106   2.288   4.350 -0.8412 -1.6708  0.3246
   47DG      H8 1066   0.010   2.368   4.242 -1.3155  0.3064 -0.4943
   47DG      O9 1067   0.352   2.164   3.935  0.5046  0.2612 -0.4177
   47DG     O10 1068   0.027   2.150   4.255 -0.3415  0.5956 -0.0317
   47DG     C11 1069   0.439   2.198   4.039  0.0509  0.0923  0.3504
   47DG     C12 1070   0.114   2.161   4.371  0.1810  0.1813  0.4048
   47DG     H13 1071   0.525   2.251   4.018  0.7094 -1.2296 -1.0226
   47DG     H14 1072   0.472   2.103   4.082 -1.0165  1.3875  1.3763
   47DG     H15 1073   0.141   2.062   4.389 -1.9100  0.9044 -1.7610
   47DG     H16 1074   0.069   2.188   4.466 -2.4326  0.0235 -0.3316
   47DG     C17 1075   0.385   2.285   4.155 -0.0092 -0.5126  1.0489
   47DG     C18 1076   0.234   2.242   4.337  0.4692  0.3694  0.0453
   47DG     O19 1077   0.292   2.197   4.218  0.3114  0.2830 -0.3154
   47DG     H20 1078   0.337   2.376   4.123  3.2508 -0.9009 -0.9784
   47DG     H21 1079   0.465   2.318   4.220 -0.2424  1.2459  3.3144
   47DG     H22 1080   0.207   2.348   4.333 -1.5068 -0.1326  1.0620
   47DG     H23 1081   0.305   2.235   4.426 -0.4765  0.3305  0.8064
   48DG      C1 1082   2.190   1.529   3.694  0.5057  0.1128 -0.3437
   48DG      C2 1083   2.785   1.554   3.496  0.0614 -0.1988  0.0094
   48DG      H3 1084   2.124   1.445   3.685  0.6686 -3.1274 -0.2016
   48DG      H4 1085   2.125   1.619   3.713  0.1055 -0.1889  0.4290
   48DG      H5 1086   2.253   1.530   3.782  2.2274  1.7678 -0.4273
   48DG      H6 1087   2.817   1.558   3.598  1.0887  1.5792 -0.0690
   48DG      H7 1088   2.798   1.451   3.459 -0.7934 -0.1566  2.3685
   48DG      H8 1089   2.860   1.634   3.460 -0.8397  2.1369 -0.2464
   48DG      O9 1090   2.271   1.531   3.580 -0.3676  0.4134 -0.4152
   48DG     O10 1091   2.652   1.603   3.466  0.7400 -0.1501  0.5101
   48DG     C11 1092   2.213   1.549   3.453  0.0543 -0.5246  0.6871
   48DG     C12 1093   2.627   1.602   3.329 -0.4529 -0.0500  0.1078
   48DG     H13 1094   2.171   1.646   3.458  1.4476 -0.2242  1.3569
   48DG     H14 1095   2.131   1.484   3.425  2.0457 -1.0759  0.2031
   48DG     H15 1096   2.600   1.504   3.302 -5.3084  1.7991  0.4276
   48DG     H16 1097   2.715   1.634   3.270 -0.4923 -0.0966  0.8838
   48DG     C17 1098   2.321   1.562   3.352  0.0127 -0.1572 -0.0400
   48DG     C18 1099   2.511   1.692   3.284 -0.3375 -0.0392  0.1820
   48DG     O19 1100   2.399   1.672   3.372  0.1327 -0.1721  0.3474
   48DG     H20 1101   2.287   1.572   3.248 -0.3800 -0.2634 -0.8867
   48DG     H21 1102   2.384   1.472   3.370 -0.9836  1.7726  0.7616
   48DG     H22 1103   2.539   1.799   3.299  2.8084  2.4176 -1.2672
   48DG     H23 1104   2.488   1.674   3.180  1.8341 -2.4945 -1.8568
   49DG      C1 1105   2.661   3.507   2.270 -0.1232  0.2569 -0.2901
   49DG      C2 1106   2.781   4.349   2.374 -0.0757  0.0516 -0.1771
   49DG      H3 1107   2.560   3.464   2.263  0.2031 -2.1140 -0.6779
   49DG      H4 1108   2.691   3.509   2.371  0.6720 -1.7069  0.4252
   49DG      H5 1109   2.727   3.436   2.210  1.5534  0.3834  1.7238
   49DG      H6 1110   2.685   4.382   2.330  0.5091 -0.5147  0.6224
   49DG      H7 1111   2.788   4.408   2.463  0.4763  0.5457 -0.1885
   49DG      H8 1112   2.873   4.370   2.317 -1.0639 -0.7716  1.2698
   49DG      O9 1113   2.663   3.627   2.206  0.0115 -0.4165  0.2699
   49DG     O10 1114   2.777   4.210   2.410 -0.0750  0.5161 -0.0890
   49DG     C11 1115   2.572   3.727   2.262 -0.4000  0.3688  0.2009
   49DG     C12 1116   2.765   4.132   2.294  0.5121 -0.6210  0.4432
   49DG     H13 1117   2.578   3.729   2.368 -0.5343  2.3865 -0.2225
   49DG     H14 1118   2.471   3.699   2.247 -1.1875  3.2483  3.6920
   49DG     H15 1119   2.831   4.153   2.211 -2.8415 -1.6651  1.2686
   49DG     H16 1120   2.666   4.146   2.257 -0.3450  1.9015  1.4000
   49DG     C17 1121   2.607   3.863   2.199  0.1882 -0.7051  0.7198
   49DG     C18 1122   2.769   3.984   2.327  0.0325  0.2014 -0.6457
   49DG     O19 1123   2.740   3.904   2.212  0.0204  0.6036 -0.2852
   49DG     H20 1124   2.525   3.938   2.215 -0.5966  3.1850 -2.6112
   49DG     H21 1125   2.599   3.839   2.093  0.6070  0.3891 -1.2356
   49DG     H22 1126   2.868   3.956   2.368  0.5834  1.8352 -1.2306
   49DG     H23 1127   2.708   3.957   2.410  1.4512  1.0598  1.8907
   50DG      C1 1128   3.781   1.993   3.342  0.2502  0.3811  0.7321
   50DG      C2 1129   3.927   1.340   3.026 -0.3856 -0.0577 -0.0241
   50DG      H3 1130   3.713   2.008   3.255  0.4268  0.4319 -3.1391
   50DG      H4 1131   3.871   2.038   3.294  2.0952 -0.4042 -0.4841
   50DG      H5 1132   3.757   2.047   3.431 -0.2446 -1.0492 -0.0269
   50DG      H6 1133   3.842   1.292   2.978  3.6052  0.5414 -0.4542
   50DG      H7 1134   3.952   1.435   2.965 -0.0798  1.1139 -1.2205
   50DG      H8 1135   4.010   1.263   3.018  0.1491 -1.9488 -0.7116
   50DG      O9 1136   3.821   1.857   3.368  0.1256  0.1433 -0.1516
   50DG     O10 1137   3.882   1.370   3.160 -0.0682 -0.4363 -0.0202
   50DG     C11 1138   3.718   1.773   3.414  0.9022  0.3861  0.8290
   50DG     C12 1139   3.982   1.425   3.245 -0.3013  0.1656  0.1054
   50DG     H13 1140   3.659   1.757   3.323 -1.8593 -0.6485 -0.0843
   50DG     H14 1141   3.664   1.828   3.499  1.0738  0.5315  1.5199
   50DG     H15 1142   4.034   1.508   3.191  0.2864  3.0409 -0.9144
   50DG     H16 1143   4.044   1.339   3.268  0.0048  5.3160  2.3942
   50DG     C17 1144   3.768   1.635   3.453  0.4270 -0.5681 -0.4469
   50DG     C18 1145   3.912   1.465   3.369 -0.3113 -0.0879 -0.0813
   50DG     O19 1146   3.830   1.584   3.341  0.0138  0.9498 -0.0016
   50DG     H20 1147   3.687   1.580   3.487  1.5806  0.2810 -1.8127
   50DG     H21 1148   3.843   1.649   3.533 -1.2811  1.4292 -0.3133
   50DG     H22 1149   3.844   1.391   3.415  1.3451 -0.2075  2.6088
   50DG     H23 1150   3.993   1.496   3.439  0.4806 -0.3499  3.6161
   51DG      C1 1151   3.434   4.289   0.336 -0.6453  0.0293  0.0490
   51DG      C2 1152   3.494   3.670   0.424 -0.3946  0.0215 -0.1824
   51DG      H3 1153   3.326   4.278   0.327 -0.8025 -0.4467 -3.2267
   51DG      H4 1154   3.476   4.265   0.241  1.4298  1.5357  0.5699
   51DG      H5 1155   3.459   4.405   0.333 -4.5331 -2.3775  1.4114
   51DG      H6 1156   3.560   3.589   0.472  0.5586 -1.6193  0.2612
   51DG      H7 1157   3.395   3.623   0.439 -1.6089 -0.1632 -1.6082
   51DG      H8 1158   3.525   3.692   0.318 -0.4114 -0.4152 -0.7001
   51DG      O9 1159   3.497   4.209   0.437  0.2357  0.2282  0.5850
   51DG     O10 1160   3.511   3.787   0.508 -0.5280 -0.3747 -0.3438
   51DG     C11 1161   3.432   4.229   0.563  0.4558  0.2679  0.8873
   51DG     C12 1162   3.478   3.766   0.641 -0.1765 -0.7559  0.3618
   51DG     H13 1163   3.330   4.223   0.533 -1.0663  1.4423  1.4160
   51DG     H14 1164   3.453   4.333   0.583 -2.0830  1.1509 -1.6737
   51DG     H15 1165   3.543   3.688   0.693  0.4413 -0.4178 -0.7989
   51DG     H16 1166   3.379   3.737   0.641 -0.8985  0.3127  1.2927
   51DG     C17 1167   3.484   4.130   0.675  0.1638  0.0343  0.6317
   51DG     C18 1168   3.506   3.897   0.712 -0.0760 -0.6732 -0.1622
   51DG     O19 1169   3.479   4.004   0.615 -0.4846 -0.0997  0.2480
   51DG     H20 1170   3.426   4.139   0.767  3.1488 -1.3109 -1.0401
   51DG     H21 1171   3.588   4.167   0.698 -0.3945 -0.1848 -4.1233
   51DG     H22 1172   3.447   3.897   0.803  1.2220  2.3329 -0.3997
   51DG     H23 1173   3.605   3.895   0.742  2.3813  0.7313 -0.3652
   52DG      C1 1174   3.001   3.795   1.849 -0.1828 -0.4472 -0.0576
   52DG      C2 1175   3.237   4.163   1.326 -0.7049  0.4016 -0.0303
   52DG      H3 1176   2.902   3.747   1.871 -0.5252 -3.6112 -0.4351
   52DG      H4 1177   3.019   3.877   1.925  0.1502 -1.8383  0.6256
   52DG      H5 1178   3.075   3.720   1.868  0.0530  0.1455 -0.1137
   52DG      H6 1179   3.279   4.194   1.232 -1.4850 -1.0321 -2.8273
   52DG      H7 1180   3.134   4.179   1.327  0.2036 -0.0865 -1.8248
   52DG      H8 1181   3.280   4.226   1.408  0.0682 -0.4479  0.6249
   52DG      O9 1182   3.011   3.833   1.713  0.5624  0.4418 -0.2644
   52DG     O10 1183   3.264   4.029   1.352 -0.3449  0.2066  0.6441
   52DG     C11 1184   2.961   3.731   1.617  0.2144 -0.1174 -0.1398
   52DG     C12 1185   3.206   3.937   1.258 -0.4797  0.3058 -0.2793
   52DG     H13 1186   2.870   3.684   1.651  0.0937 -3.4176 -1.6176
   52DG     H14 1187   3.040   3.655   1.613  0.0435 -4.1038 -2.2685
   52DG     H15 1188   3.258   3.840   1.248 -1.5920  0.0266  0.3436
   52DG     H16 1189   3.204   3.973   1.154 -1.2524  2.3159 -1.7574
   52DG     C17 1190   2.942   3.797   1.479  0.9830 -0.3923  0.4082
   52DG     C18 1191   3.066   3.903   1.299  0.5919  0.4670  0.7974
   52DG     O19 1192   3.068   3.840   1.426 -0.0192  0.1895 -0.8432
   52DG     H20 1193   2.865   3.878   1.482 -1.3781 -0.6679  0.2944
   52DG     H21 1194   2.910   3.724   1.410  2.1107 -0.5529  1.6923
   52DG     H22 1195   3.009   3.994   1.293  0.8266 -1.8500 -1.3941
   52DG     H23 1196   3.010   3.838   1.232 -0.2416 -2.1024 -1.8645
   53DG      C1 1197   0.898   2.270   5.158  0.2928  0.5723  0.0720
   53DG      C2 1198   1.362   2.557   5.594 -0.4939  0.3540 -0.6867
   53DG      H3 1199   0.887   2.231   5.051 -0.6142 -1.5456 -0.0723
   53DG      H4 1200   0.808   2.322   5.177 -1.2880 -0.7506  0.0821
   53DG      H5 1201   0.917   2.188   5.224 -0.9328  0.2733 -0.7630
   53DG      H6 1202   1.464   2.599   5.586 -1.4678 -1.2167  0.8734
   53DG      H7 1203   1.314   2.613   5.670 -0.3297  2.2922 -3.1132
   53DG      H8 1204   1.395   2.457   5.621  2.7754 -0.6224 -0.2682
   53DG      O9 1205   1.016   2.342   5.167  0.0297  0.1083  0.7567
   53DG     O10 1206   1.295   2.560   5.469  0.0844  0.2182 -0.2186
   53DG     C11 1207   1.006   2.461   5.091 -0.2445 -0.1669 -0.6528
   53DG     C12 1208   1.151   2.554   5.480  0.0315 -0.4115 -0.4232
   53DG     H13 1209   0.920   2.508   5.129 -0.4876 -2.8981 -1.6325
   53DG     H14 1210   1.002   2.453   4.982  0.4581 -0.6149 -0.2777
   53DG     H15 1211   1.126   2.620   5.562 -2.6252 -1.2286  0.3822
   53DG     H16 1212   1.114   2.457   5.505  1.7850 -2.7195  0.2825
   53DG     C17 1213   1.131   2.540   5.118 -0.2714  0.4306  0.2200
   53DG     C18 1214   1.100   2.598   5.345 -0.0666 -0.1057 -0.3545
   53DG     O19 1215   1.175   2.524   5.255 -0.0231 -0.2630  0.0969
   53DG     H20 1216   1.128   2.639   5.091  0.0590 -1.3937  0.3308
   53DG     H21 1217   1.215   2.503   5.062  0.0902  0.4704 -2.1160
   53DG     H22 1218   0.992   2.577   5.342  0.8934  3.4032 -1.1139
   53DG     H23 1219   1.113   2.699   5.331 -0.8076 -1.1232  2.5832
   54DG      C1 1220   4.729   0.873   2.926 -0.4351  0.0589  0.0761
   54DG      C2 1221   4.157   1.272   2.711  0.2759 -0.1677  0.2398
   54DG      H3 1222   4.832   0.863   2.893 -2.5827  0.1518  2.1854
   54DG      H4 1223   4.666   0.787   2.904  0.9189  0.5338  3.2292
   54DG      H5 1224   4.735   0.880   3.038 -0.5637 -2.1310  0.9347
   54DG      H6 1225   4.117   1.375   2.698 -1.9983  0.5777 -0.8200
   54DG      H7 1226   4.150   1.216   2.625  0.6856  0.9831 -0.8320
   54DG      H8 1227   4.090   1.233   2.793 -0.2377 -1.8409 -0.8629
   54DG      O9 1228   4.670   0.985   2.870  0.0082  0.1914 -0.0035
   54DG     O10 1229   4.299   1.284   2.747 -0.3611  0.4518 -0.5590
   54DG     C11 1230   4.724   1.111   2.910  0.0432 -0.0551 -0.4299
   54DG     C12 1231   4.380   1.318   2.634 -0.1244  0.6848  0.0117
   54DG     H13 1232   4.832   1.102   2.931  3.5668  1.4503 -1.3196
   54DG     H14 1233   4.681   1.170   2.995  1.2044  0.9502 -0.6209
   54DG     H15 1234   4.346   1.411   2.588 -1.1572  2.3279  1.5698
   54DG     H16 1235   4.351   1.234   2.563  1.2657  0.8883  0.9647
   54DG     C17 1236   4.697   1.201   2.790  0.7995  0.5346  0.3073
   54DG     C18 1237   4.523   1.319   2.673  0.1152 -0.1451 -0.9149
   54DG     O19 1238   4.558   1.199   2.746 -0.3494  0.2578 -0.5606
   54DG     H20 1239   4.766   1.186   2.703 -0.6852  0.6696  1.7447
   54DG     H21 1240   4.713   1.305   2.824 -3.4794  0.0831 -1.4496
   54DG     H22 1241   4.598   1.326   2.588  1.0692 -0.2152 -1.0253
   54DG     H23 1242   4.543   1.414   2.725 -3.2899  0.2101  0.1938
   55DG      C1 1243   3.306   5.446   3.892 -0.4250  0.0181  0.0010
   55DG      C2 1244   3.119   4.892   4.143 -0.0552 -0.3308 -0.8411
   55DG      H3 1245   3.328   5.478   3.991  5.2419  2.0680  1.8030
   55DG      H4 1246   3.206   5.470   3.885  1.9659 -0.6902  4.4461
   55DG      H5 1247   3.368   5.498   3.820 -0.5374 -0.5841 -0.2164
   55DG      H6 1248   3.091   4.819   4.057 -0.1949 -0.2890  0.5449
   55DG      H7 1249   3.144   4.837   4.232  1.0668  0.6424 -0.7986
   55DG      H8 1250   3.030   4.947   4.176  0.3669 -0.4173  2.6252
   55DG      O9 1251   3.333   5.307   3.877 -0.0266 -0.2954 -0.5512
   55DG     O10 1252   3.230   4.972   4.103  0.1472  0.5575  0.1055
   55DG     C11 1253   3.461   5.269   3.916  0.1942  0.3441  0.8564
   55DG     C12 1254   3.356   4.910   4.127  0.2030 -0.9290 -0.2911
   55DG     H13 1255   3.474   5.294   4.023 -0.7237  0.8168 -0.4617
   55DG     H14 1256   3.529   5.335   3.865  1.7804 -0.9454  0.7617
   55DG     H15 1257   3.369   4.818   4.072  0.4220 -0.2210 -2.4044
   55DG     H16 1258   3.366   4.877   4.230 -1.5481 -0.2806 -0.3200
   55DG     C17 1259   3.510   5.117   3.882  0.2005 -0.0192  0.0337
   55DG     C18 1260   3.450   5.012   4.083  0.1632 -0.5425 -0.1206
   55DG     O19 1261   3.423   5.023   3.944 -0.2063  0.3741  0.5149
   55DG     H20 1262   3.610   5.113   3.917 -1.8710  1.2773  1.3440
   55DG     H21 1263   3.512   5.105   3.774 -1.0167 -2.8583  0.4859
   55DG     H22 1264   3.430   5.109   4.124 -1.2036 -0.1190 -0.0915
   55DG     H23 1265   3.555   4.980   4.107 -0.5137  1.3034 -0.2425
   56DG      C1 1266   2.970   0.318   2.900  0.0752  0.2889 -0.6554
   56DG      C2 1267   2.668   0.871   2.974  0.4493 -0.1537 -0.3628
   56DG      H3 1268   3.019   0.362   2.992  0.5539  0.1749 -0.7400
   56DG      H4 1269   2.942   0.404   2.838 -0.6611 -3.4594  0.7382
   56DG      H5 1270   3.031   0.253   2.849 -1.3857 -1.3403 -0.6362
   56DG      H6 1271   2.582   0.918   2.927 -1.0877 -1.1787 -0.5678
   56DG      H7 1272   2.631   0.836   3.069  0.8577  1.9115  0.6611
   56DG      H8 1273   2.739   0.955   2.992 -1.0744  2.0467  2.3203
   56DG      O9 1274   2.862   0.234   2.945  0.5546  0.4863  0.2155
   56DG     O10 1275   2.725   0.770   2.899 -0.2629 -0.0802  0.3892
   56DG     C11 1276   2.784   0.281   3.058 -0.5760  0.2789  0.4041
   56DG     C12 1277   2.834   0.703   2.961 -0.0996  0.0102 -0.3703
   56DG     H13 1278   2.838   0.330   3.138 -0.1989 -1.4528 -1.4526
   56DG     H14 1279   2.746   0.185   3.103 -0.4077 -1.2578 -0.8639
   56DG     H15 1280   2.900   0.765   3.025  1.9047  0.1143  0.4746
   56DG     H16 1281   2.908   0.664   2.891 -3.1760  0.8944 -1.0163
   56DG     C17 1282   2.671   0.374   3.007  0.2606 -0.0826 -0.5875
   56DG     C18 1283   2.778   0.579   3.035 -0.1566 -0.1304  0.6853
   56DG     O19 1284   2.720   0.486   2.940 -0.4482  0.6958 -0.0506
   56DG     H20 1285   2.593   0.403   3.075 -0.9613  0.4055 -0.1126
   56DG     H21 1286   2.611   0.313   2.939  2.4332 -0.8496  2.3095
   56DG     H22 1287   2.866   0.547   3.094  2.3852 -0.3844  0.5321
   56DG     H23 1288   2.697   0.613   3.097  0.5371  0.4922  1.4609
   57DG      C1 1289   3.840   5.362   1.329  0.5006  0.1233 -0.2516
   57DG      C2 1290   4.455   5.653   1.206  0.0102 -0.3466  0.0287
   57DG      H3 1291   3.743   5.396   1.369 -0.1019 -0.6830 -1.3855
   57DG      H4 1292   3.851   5.268   1.377 -0.0028  1.3587 -1.0926
   57DG      H5 1293   3.817   5.349   1.222  0.0278 -0.8887  2.4065
   57DG      H6 1294   4.518   5.730   1.252  0.1731 -1.6903  0.1801
   57DG      H7 1295   4.517   5.569   1.174  0.2032  1.8190 -2.1570
   57DG      H8 1296   4.402   5.687   1.110  1.6552 -0.0740 -0.0591
   57DG      O9 1297   3.934   5.453   1.370 -0.0915  0.3890 -0.7753
   57DG     O10 1298   4.357   5.600   1.295  0.6617 -0.0377 -0.4553
   57DG     C11 1299   3.968   5.431   1.507  0.4032  0.3113  0.2855
   57DG     C12 1300   4.401   5.530   1.412  0.2307  0.9133  0.3932
   57DG     H13 1301   3.999   5.327   1.527 -0.4169  1.9511 -0.2818
   57DG     H14 1302   3.873   5.433   1.569 -1.8721  1.0976  1.8841
   57DG     H15 1303   4.509   5.561   1.436  1.1168 -0.5044 -1.2860
   57DG     H16 1304   4.420   5.424   1.386 -0.6734 -0.4457 -0.4174
   57DG     C17 1305   4.071   5.526   1.561 -0.4547  1.0956  0.0770
   57DG     C18 1306   4.302   5.535   1.528 -0.4739 -0.2040  0.8698
   57DG     O19 1307   4.175   5.533   1.470  0.0879  0.0919  0.2659
   57DG     H20 1308   4.104   5.489   1.651  0.5592 -0.8684 -2.1641
   57DG     H21 1309   4.037   5.622   1.580  0.4007 -0.3997  1.0591
   57DG     H22 1310   4.313   5.446   1.588  0.7073 -5.8593  0.8210
   57DG     H23 1311   4.311   5.622   1.593  0.8309  1.0436  0.1210
   58DG      C1 1312   4.843   0.055   0.833  0.3380  0.5362  0.2672
   58DG      C2 1313   4.689  -0.619   0.384  0.0349 -0.7380 -0.0107
   58DG      H3 1314   4.925   0.106   0.779  0.7452  0.1420  0.9135
   58DG      H4 1315   4.887  -0.017   0.900  0.1640 -0.0779  2.2443
   58DG      H5 1316   4.799   0.121   0.902  0.4867 -1.2368 -0.4905
   58DG      H6 1317   4.719  -0.704   0.448 -0.4397  2.9912  0.6527
   58DG      H7 1318   4.605  -0.657   0.321 -0.4142 -0.7479  2.5889
   58DG      H8 1319   4.769  -0.582   0.323  2.0211  1.9189 -2.7274
   58DG      O9 1320   4.760  -0.011   0.737 -0.6413  0.4929  0.4959
   58DG     O10 1321   4.650  -0.526   0.478  0.1595  0.2996  0.2482
   58DG     C11 1322   4.684  -0.111   0.803  0.0986  0.1533  0.3031
   58DG     C12 1323   4.609  -0.408   0.418 -0.7106 -0.0144  0.5435
   58DG     H13 1324   4.639  -0.061   0.893 -1.5017  0.3756  2.3689
   58DG     H14 1325   4.746  -0.196   0.843  1.8395 -1.9187  0.7573
   58DG     H15 1326   4.550  -0.435   0.331  0.3415 -1.3145 -1.8767
   58DG     H16 1327   4.701  -0.359   0.385 -2.5576 -1.1812 -3.0634
   58DG     C17 1328   4.570  -0.174   0.716  0.0429 -0.3117  0.2201
   58DG     C18 1329   4.532  -0.308   0.512 -0.8697 -0.0124  0.3794
   58DG     O19 1330   4.625  -0.262   0.615 -0.0853 -0.0108 -0.0782
   58DG     H20 1331   4.515  -0.092   0.666  3.8255  1.5637 -0.9568
   58DG     H21 1332   4.511  -0.230   0.776 -0.1678 -0.2650  0.6159
   58DG     H22 1333   4.492  -0.220   0.455  0.4802  0.8799 -4.0849
   58DG     H23 1334   4.445  -0.362   0.546  1.0087 -1.5053  0.4270
   59DG      C1 1335   3.004   5.267   4.134  0.3283  0.3851 -0.2971
   59DG      C2 1336   3.269   5.189   3.504  0.1204  0.0305  0.2375
   59DG      H3 1337   2.987   5.213   4.222 -0.5054 -0.2892 -1.5956
   59DG      H4 1338   2.927   5.353   4.131 -4.4406 -2.4279 -2.8196
   59DG      H5 1339   3.102   5.310   4.155 -1.5989 -2.3711  0.2913
   59DG      H6 1340   3.311   5.120   3.436  1.2950 -1.3596 -1.0995
   59DG      H7 1341   3.186   5.250   3.469 -0.4304 -0.2611  1.6940
   59DG      H8 1342   3.357   5.237   3.541 -0.7080 -1.1507 -0.0142
   59DG      O9 1343   3.001   5.184   4.015  0.7665  0.1873 -0.7664
   59DG     O10 1344   3.210   5.125   3.619  0.3763 -0.0224  0.4394
   59DG     C11 1345   2.870   5.141   3.987 -0.0514 -0.0205 -0.3807
   59DG     C12 1346   3.100   5.048   3.573  0.4107  0.1786 -0.5654
   59DG     H13 1347   2.805   5.227   3.976  2.1077 -0.4907  0.2783
   59DG     H14 1348   2.822   5.089   4.075  1.1191 -2.8233  4.0758
   59DG     H15 1349   3.124   4.967   3.496 -1.0046  0.3596 -0.5379
   59DG     H16 1350   3.030   5.117   3.514 -0.3831  1.8406  1.8987
   59DG     C17 1351   2.877   5.035   3.879  0.6186  0.1554  0.1947
   59DG     C18 1352   3.016   4.982   3.691  0.6800  0.8457 -0.2285
   59DG     O19 1353   2.980   5.082   3.785 -0.6333 -0.5853 -0.0664
   59DG     H20 1354   2.780   5.037   3.827 -1.2177  2.5752 -1.9248
   59DG     H21 1355   2.905   4.937   3.921 -0.3095 -1.4604 -2.0606
   59DG     H22 1356   2.929   4.936   3.649 -1.0056  1.5157  0.6783
   59DG     H23 1357   3.070   4.903   3.744 -0.9637 -1.1694 -0.1792
   60DG      C1 1358   5.067   4.724   3.253 -0.3828  0.2338 -0.2480
   60DG      C2 1359   5.031   5.283   2.946  0.4899 -0.3014  0.6944
   60DG      H3 1360   5.105   4.654   3.324 -0.0511 -1.9036 -2.2394
   60DG      H4 1361   5.067   4.671   3.155 -3.8898 -1.5780 -3.7707
   60DG      H5 1362   4.965   4.763   3.266  0.1061 -1.5259 -0.0535
   60DG      H6 1363   4.972   5.229   2.872 -0.5356 -1.4361  0.6826
   60DG      H7 1364   4.961   5.304   3.033 -2.5489  1.4354  1.5424
   60DG      H8 1365   5.056   5.375   2.899  3.1019 -1.1786  2.0005
   60DG      O9 1366   5.154   4.839   3.244 -0.2643 -0.7170  0.3477
   60DG     O10 1367   5.141   5.225   3.011 -0.7016 -0.1661 -0.1722
   60DG     C11 1368   5.174   4.910   3.365 -0.2569  0.4094  0.3409
   60DG     C12 1369   5.193   5.311   3.114 -0.3288  0.2902 -0.1789
   60DG     H13 1370   5.225   4.841   3.434 -0.7080  0.2403 -0.1828
   60DG     H14 1371   5.085   4.913   3.425 -1.0860  0.7556  0.4525
   60DG     H15 1372   5.103   5.343   3.165  2.5778  0.0999 -5.2498
   60DG     H16 1373   5.249   5.400   3.078 -0.0627  0.5224 -0.9981
   60DG     C17 1374   5.253   5.035   3.348 -0.0031 -0.5302 -0.3472
   60DG     C18 1375   5.275   5.223   3.212  0.2516 -0.0498  0.1150
   60DG     O19 1376   5.203   5.104   3.233 -0.2685 -0.1098 -0.2824
   60DG     H20 1377   5.365   5.013   3.353  1.6649 -1.5376 -0.6079
   60DG     H21 1378   5.240   5.103   3.435 -0.2438  1.3465  0.6279
   60DG     H22 1379   5.371   5.196   3.164  2.1467 -1.8101 -0.1407
   60DG     H23 1380   5.290   5.283   3.304  1.8187  1.9707 -0.9520
   61DG      C1 1381   4.116   3.735   3.552  0.0294 -0.3896  0.0119
   61DG      C2 1382   4.074   3.903   4.233  0.3655 -0.4756 -0.7079
   61DG      H3 1383   4.008   3.714   3.530 -0.9984  0.6684  0.6478
   61DG      H4 1384   4.171   3.650   3.601  1.1801  1.2536  2.2777
   61DG      H5 1385   4.170   3.743   3.458  0.5308  0.5277 -0.5159
   61DG      H6 1386   4.028   3.906   4.131  1.0046  0.9234  0.3539
   61DG      H7 1387   4.058   3.799   4.271  1.8902  0.1000  0.3101
   61DG      H8 1388   4.013   3.967   4.296  2.0150 -2.5356 -0.5050
   61DG      O9 1389   4.127   3.860   3.616  0.3764  0.3875 -0.1333
   61DG     O10 1390   4.215   3.940   4.221  0.2925  0.8176  0.4506
   61DG     C11 1391   4.096   3.867   3.753  0.8289  0.2316  0.0643
   61DG     C12 1392   4.219   4.076   4.174 -0.3807 -0.4239  0.7258
   61DG     H13 1393   4.133   3.778   3.807  4.3756 -1.5312  0.7349
   61DG     H14 1394   3.987   3.865   3.758  2.1967 -0.7779 -1.1380
   61DG     H15 1395   4.300   4.125   4.224  3.7370 -1.2317 -1.8212
   61DG     H16 1396   4.122   4.132   4.201 -1.8328  2.6472 -2.2606
   61DG     C17 1397   4.151   3.999   3.808 -0.0811 -0.2810  0.4689
   61DG     C18 1398   4.235   4.071   4.023  0.6075 -0.0734  0.0976
   61DG     O19 1399   4.127   4.014   3.950 -0.2450 -0.6099 -0.1547
   61DG     H20 1400   4.106   4.086   3.755 -1.3740 -0.2604 -2.9432
   61DG     H21 1401   4.261   4.017   3.789 -1.8931  0.7694 -0.1743
   61DG     H22 1402   4.268   4.167   3.981  4.2086 -0.8904 -1.7872
   61DG     H23 1403   4.323   4.003   4.003  2.1462  1.1213  0.3114
   62DG      C1 1404   0.205   1.927   1.010 -0.6289 -0.0123  0.1025
   62DG      C2 1405  -0.400   1.982   0.748 -0.1719  0.4478 -0.0006
   62DG      H3 1406   0.188   2.035   1.037 -3.6350 -0.3509 -0.4496
   62DG      H4 1407   0.254   1.924   0.910 -1.0905  2.4056  1.9930
   62DG      H5 1408   0.282   1.883   1.077 -1.5265 -1.8967  0.3642
   62DG      H6 1409  -0.427   2.060   0.822  0.5762 -3.7021 -0.3367
   62DG      H7 1410  -0.318   2.014   0.674  0.4757  1.8736 -1.1183
   62DG      H8 1411  -0.487   1.957   0.681 -0.4821 -0.8245 -1.1070
   62DG      O9 1412   0.089   1.851   1.016  0.5365  0.3060 -0.3636
   62DG     O10 1413  -0.362   1.863   0.821  0.5099 -0.5177  0.1443
   62DG     C11 1414   0.102   1.714   0.978 -0.6816  0.9747  0.6795
   62DG     C12 1415  -0.307   1.760   0.744 -0.2890  0.1700  0.2345
   62DG     H13 1416   0.158   1.654   1.053 -3.2634  2.7985 -3.0309
   62DG     H14 1417   0.152   1.703   0.882  1.4108  4.2916 -0.6406
   62DG     H15 1418  -0.233   1.802   0.680 -1.1409 -2.5084  4.0037
   62DG     H16 1419  -0.377   1.711   0.679  2.3191  0.4954 -2.7243
   62DG     C17 1420  -0.037   1.652   0.955 -0.2921 -0.4214 -0.1052
   62DG     C18 1421  -0.238   1.663   0.834  0.6089  0.8275 -0.4536
   62DG     O19 1422  -0.129   1.734   0.890  1.3511 -0.1902  0.5873
   62DG     H20 1423  -0.077   1.623   1.051 -0.4012  0.2003 -0.2314
   62DG     H21 1424  -0.025   1.554   0.905 -0.8942 -0.3491  0.8550
   62DG     H22 1425  -0.311   1.623   0.914 -0.1659 -0.7719 -0.3990
   62DG     H23 1426  -0.204   1.570   0.777 -0.2405 -1.5883  0.4030
   63DG      C1 1427   5.003   0.485   1.897  0.5004  0.3135  0.5685
   63DG      C2 1428   4.939   0.288   1.251  1.1292 -0.2229 -0.0370
   63DG      H3 1429   4.904   0.441   1.910 -1.6647  1.8878 -3.2180
   63DG      H4 1430   4.996   0.588   1.876  3.6396 -1.3122  1.6681
   63DG      H5 1431   5.054   0.489   1.993  2.4608  0.3302  1.2416
   63DG      H6 1432   4.888   0.369   1.208 -2.0711 -4.1068  2.7248
   63DG      H7 1433   4.982   0.235   1.173  2.4922 -1.0339 -1.2651
   63DG      H8 1434   4.881   0.215   1.302 -0.5575 -0.3368 -1.1595
   63DG      O9 1435   5.072   0.418   1.801  0.2017 -0.8257 -0.4009
   63DG     O10 1436   5.031   0.327   1.353  0.6121 -0.0882 -0.5249
   63DG     C11 1437   5.198   0.483   1.767 -0.0115 -0.0507 -0.9626
   63DG     C12 1438   5.149   0.368   1.304  0.1781 -0.6544 -0.0831
   63DG     H13 1439   5.272   0.471   1.844 -0.9978  1.1106 -0.4948
   63DG     H14 1440   5.189   0.587   1.736 -1.5963  2.5495 -2.1338
   63DG     H15 1441   5.139   0.470   1.282 -1.8863  2.3491  1.3464
   63DG     H16 1442   5.192   0.305   1.230  1.7416  1.3438  0.0297
   63DG     C17 1443   5.258   0.405   1.649  0.0091 -0.3109  0.6888
   63DG     C18 1444   5.248   0.352   1.419  0.3362  0.8667 -0.2513
   63DG     O19 1445   5.186   0.422   1.529 -0.2791 -0.1364 -0.2063
   63DG     H20 1446   5.256   0.290   1.676 -1.9588  1.3545  0.7304
   63DG     H21 1447   5.359   0.439   1.632 -1.4617 -3.4287  0.7820
   63DG     H22 1448   5.259   0.242   1.446 -0.1594  1.2769  0.4657
   63DG     H23 1449   5.354   0.385   1.388 -0.4737 -0.2950 -2.7882
   64DG      C1 1450   4.007   1.499   3.771  0.5740 -0.5355 -0.2714
   64DG      C2 1451   4.057   1.210   4.409  0.0374 -0.3672  0.3098
   64DG      H3 1452   3.924   1.428   3.774  1.1478 -0.1777  0.2087
   64DG      H4 1453   4.086   1.442   3.721  1.3180 -0.4344  2.1185
   64DG      H5 1454   3.952   1.581   3.720  0.6076  0.4244 -3.2522
   64DG      H6 1455   3.963   1.168   4.399  3.3430  1.8964  0.6768
   64DG      H7 1456   4.134   1.140   4.384  2.7439  1.1206 -1.8897
   64DG      H8 1457   4.064   1.231   4.515  0.8161  0.1756  1.9018
   64DG      O9 1458   4.058   1.523   3.904  0.8779  0.4111 -0.1828
   64DG     O10 1459   4.056   1.328   4.324  0.3011 -0.8043 -0.5324
   64DG     C11 1460   4.163   1.624   3.913  0.7621 -0.6229 -0.1782
   64DG     C12 1461   4.176   1.419   4.342 -0.1017 -0.5193  0.2601
   64DG     H13 1462   4.138   1.725   3.869 -1.4858  0.4743 -2.5372
   64DG     H14 1463   4.255   1.581   3.872  0.3465  0.7264  0.5924
   64DG     H15 1464   4.253   1.368   4.288  1.3912  3.4057  1.6498
   64DG     H16 1465   4.199   1.421   4.444 -0.6117 -0.8733 -4.4453
   64DG     C17 1466   4.174   1.655   4.064  0.5752 -0.1952  0.7377
   64DG     C18 1467   4.153   1.558   4.280  0.5331 -0.1318 -0.0397
   64DG     O19 1468   4.150   1.536   4.140  0.0813 -0.1086 -0.4559
   64DG     H20 1469   4.100   1.737   4.090  0.7762  2.2770 -2.1617
   64DG     H21 1470   4.277   1.692   4.084  1.0662  0.9173  0.4749
   64DG     H22 1471   4.054   1.602   4.308 -0.2342  1.3974 -1.9841
   64DG     H23 1472   4.227   1.621   4.322 -2.2520 -1.6488  1.9738
   65DG      C1 1473   5.047   1.564   0.146 -0.3270 -0.1110  0.7481
   65DG      C2 1474   4.426   1.183   0.174 -0.1640 -0.2605  0.3995
   65DG      H3 1475   5.133   1.519   0.096  2.0380 -2.3977  0.1714
   65DG      H4 1476   5.056   1.541   0.248 -0.0352  2.0178  1.2586
   65DG      H5 1477   5.043   1.677   0.134  1.8216  0.1453  2.6668
   65DG      H6 1478   4.462   1.169   0.272  0.4781 -0.4256 -1.7081
   65DG      H7 1479   4.328   1.235   0.187 -1.9595  3.2377  3.7216
   65DG      H8 1480   4.408   1.079   0.130 -0.6759  0.5200  1.1332
   65DG      O9 1481   4.936   1.496   0.085  0.0565 -0.1096 -0.1036
   65DG     O10 1482   4.531   1.235   0.099  0.2129 -0.1008 -0.8336
   65DG     C11 1483   4.920   1.512  -0.057  0.8191 -0.8177  0.1526
   65DG     C12 1484   4.490   1.306  -0.016  0.4053  0.4317 -0.0044
   65DG     H13 1485   5.011   1.516  -0.113  0.4195  0.7660 -0.0515
   65DG     H14 1486   4.878   1.611  -0.072 -0.8951  0.4593  1.9542
   65DG     H15 1487   4.438   1.395   0.027  1.3031  1.0846  1.4850
   65DG     H16 1488   4.409   1.265  -0.071 -1.8225 -2.4157  0.5854
   65DG     C17 1489   4.836   1.396  -0.114 -1.0723 -0.0282 -0.8263
   65DG     C18 1490   4.609   1.325  -0.104  0.1030 -0.0265 -0.0641
   65DG     O19 1491   4.729   1.363  -0.030  0.4069 -0.4091 -0.0336
   65DG     H20 1492   4.886   1.304  -0.140 -0.0466 -1.4297 -2.3331
   65DG     H21 1493   4.804   1.445  -0.206  0.8782 -0.0220 -0.2187
   65DG     H22 1494   4.636   1.227  -0.156  1.0739  1.4703  0.4378
   65DG     H23 1495   4.585   1.391  -0.187 -0.5281 -1.7166 -1.0778
   66DG      C1 1496   3.255   1.459   1.331  0.3811 -0.3907  0.8883
   66DG      C2 1497   3.316   0.614   1.401 -0.0158 -0.0606 -0.9410
   66DG      H3 1498   3.190   1.447   1.421 -0.0794 -0.8797  1.9021
   66DG      H4 1499   3.239   1.561   1.296 -2.9209 -0.5981 -0.9636
   66DG      H5 1500   3.360   1.446   1.350 -0.8695 -1.5537  0.2516
   66DG      H6 1501   3.218   0.560   1.411 -2.4376  0.1642  1.4100
   66DG      H7 1502   3.380   0.566   1.332  0.3881  1.6311  1.4273
   66DG      H8 1503   3.369   0.624   1.489 -0.2122  2.1131 -0.0728
   66DG      O9 1504   3.195   1.363   1.247  0.7435 -0.9806 -0.2878
   66DG     O10 1505   3.301   0.744   1.356  0.1081  0.1659 -0.0372
   66DG     C11 1506   3.236   1.232   1.290 -0.4137 -0.0833 -0.3638
   66DG     C12 1507   3.196   0.757   1.252  0.1417  1.1679  0.0169
   66DG     H13 1508   3.212   1.222   1.396  2.2013 -0.0086 -0.0110
   66DG     H14 1509   3.346   1.219   1.290 -1.6116  1.4758  0.2231
   66DG     H15 1510   3.094   0.751   1.293 -0.8886  0.2875  1.4078
   66DG     H16 1511   3.204   0.675   1.178 -1.0171  1.2283 -0.5805
   66DG     C17 1512   3.167   1.119   1.208 -0.9310  0.0958  0.1149
   66DG     C18 1513   3.205   0.888   1.179 -0.5989  0.4675  0.4208
   66DG     O19 1514   3.192   0.995   1.267 -0.1279  0.2515  0.4856
   66DG     H20 1515   3.198   1.121   1.102 -1.0177 -0.1226  1.4725
   66DG     H21 1516   3.060   1.141   1.208 -0.2045 -0.6416 -0.1260
   66DG     H22 1517   3.308   0.910   1.140  1.8933  0.8693 -0.4343
   66DG     H23 1518   3.134   0.883   1.095 -0.4452 -1.9613 -3.4449
   67DG      C1 1519   3.728   1.193   2.667 -0.1476 -0.3177 -0.0479
   67DG      C2 1520   3.700   0.469   3.115  0.0138  0.5098 -0.0612
   67DG      H3 1521   3.676   1.284   2.637  2.7051 -0.2652  3.2004
   67DG      H4 1522   3.775   1.160   2.576  2.1247 -1.1635  1.6206
   67DG      H5 1523   3.808   1.212   2.744  3.7276 -0.1323  1.2327
   67DG      H6 1524   3.713   0.460   3.223 -0.2895  1.8583  2.8094
   67DG      H7 1525   3.610   0.406   3.085 -4.4492 -0.6802  0.4358
   67DG      H8 1526   3.777   0.411   3.066  0.4352  1.3095 -1.4180
   67DG      O9 1527   3.633   1.090   2.703  0.0582  0.0190  0.3019
   67DG     O10 1528   3.690   0.606   3.078 -0.6550  0.6448 -0.3889
   67DG     C11 1529   3.695   0.965   2.749  1.0916 -0.4001  0.3010
   67DG     C12 1530   3.802   0.683   3.117 -0.9711  0.0310 -0.7023
   67DG     H13 1531   3.782   0.942   2.684  1.1360  0.5510 -0.2822
   67DG     H14 1532   3.616   0.880   2.736  0.9843 -0.4526  0.8160
   67DG     H15 1533   3.889   0.646   3.072  0.1339  1.2401  2.9893
   67DG     H16 1534   3.820   0.676   3.231  4.8281  1.5652  0.7321
   67DG     C17 1535   3.741   0.972   2.889 -0.1549  0.2559 -0.9142
   67DG     C18 1536   3.776   0.825   3.079 -0.1020 -0.2470  0.4293
   67DG     O19 1537   3.749   0.838   2.937 -0.0792 -0.0521 -0.3623
   67DG     H20 1538   3.663   1.027   2.945  0.4169 -0.5909 -1.9041
   67DG     H21 1539   3.836   1.020   2.892 -0.3058 -1.6263 -0.9322
   67DG     H22 1540   3.688   0.842   3.136  0.8522 -0.7160  0.6096
   67DG     H23 1541   3.863   0.875   3.115  2.5176  0.7309 -0.7368
   68DG      C1 1542   3.212   2.793   3.239  0.5658 -0.2943  0.1307
   68DG      C2 1543   3.554   3.265   3.633 -0.5506  0.3927 -0.8515
   68DG      H3 1544   3.245   2.890   3.293  1.0500  0.8449 -1.8832
   68DG      H4 1545   3.121   2.754   3.287  2.4667  0.8128  1.6026
   68DG      H5 1546   3.202   2.811   3.131  2.2691  1.6435 -0.4276
   68DG      H6 1547   3.491   3.340   3.586 -1.0496  1.7376  3.0824
   68DG      H7 1548   3.500   3.201   3.698 -2.8492 -2.1465  1.4779
   68DG      H8 1549   3.638   3.312   3.688 -0.4946  2.0243 -0.8095
   68DG      O9 1550   3.307   2.690   3.256 -0.0402 -0.0714 -0.1792
   68DG     O10 1551   3.611   3.175   3.535 -0.4001 -0.4277  0.3432
   68DG     C11 1552   3.435   2.713   3.194 -0.1909  0.3368 -0.6298
   68DG     C12 1553   3.521   3.097   3.464 -0.3435  0.2963 -0.1461
   68DG     H13 1554   3.427   2.776   3.105 -1.8631 -0.2598 -0.0508
   68DG     H14 1555   3.473   2.618   3.160 -0.5793 -1.2214  2.9186
   68DG     H15 1556   3.497   3.137   3.367 -0.2876 -0.3803 -0.6049
   68DG     H16 1557   3.416   3.094   3.505 -3.5657 -0.1364  0.3704
   68DG     C17 1558   3.544   2.776   3.287 -0.5407  0.7812 -0.4699
   68DG     C18 1559   3.568   2.954   3.436  0.7009  0.1639  0.6230
   68DG     O19 1560   3.502   2.904   3.319 -0.5748 -0.6707  0.2234
   68DG     H20 1561   3.632   2.794   3.222 -0.3030 -0.1389 -2.0619
   68DG     H21 1562   3.564   2.719   3.375  1.8884  0.0401  4.5752
   68DG     H22 1563   3.668   2.957   3.403 -2.5018 -0.6451  0.3586
   68DG     H23 1564   3.555   2.893   3.526  0.0223  1.7177 -0.3762
   69DG      C1 1565   2.103   5.236   5.033  0.5970  0.1437 -0.0871
   69DG      C2 1566   2.876   4.967   4.905  0.5116  0.0601 -0.0982
   69DG      H3 1567   2.105   5.277   4.936 -2.1239 -0.8622  0.7823
   69DG      H4 1568   2.030   5.301   5.077 -1.3207  0.1601  2.5372
   69DG      H5 1569   2.070   5.134   5.038  0.4145 -1.9939  1.4599
   69DG      H6 1570   2.845   4.870   4.945 -2.8870 -2.3771 -2.5111
   69DG      H7 1571   2.880   4.967   4.795 -1.9129 -1.0786  1.9028
   69DG      H8 1572   2.979   4.993   4.930 -1.6513 -0.7476 -0.5185
   69DG      O9 1573   2.218   5.244   5.108 -0.5404 -0.7397  0.3234
   69DG     O10 1574   2.800   5.066   4.965 -0.4708  0.0221  0.3458
   69DG     C11 1575   2.335   5.187   5.053  0.1818 -0.2026  0.2303
   69DG     C12 1576   2.783   5.045   5.105 -0.1494 -0.4677 -0.3391
   69DG     H13 1577   2.357   5.228   4.959  0.9083 -2.2037  1.1678
   69DG     H14 1578   2.315   5.084   5.030  1.4118  0.7554  2.2552
   69DG     H15 1579   2.880   5.058   5.158 -0.7915  1.4505  1.3128
   69DG     H16 1580   2.738   4.943   5.133 -1.6464  0.5270 -2.7527
   69DG     C17 1581   2.455   5.213   5.144 -0.5158 -0.6428  0.2172
   69DG     C18 1582   2.688   5.159   5.160 -0.0996  0.0264 -0.3947
   69DG     O19 1583   2.566   5.135   5.094 -0.7783 -0.2779  0.4365
   69DG     H20 1584   2.433   5.177   5.243  0.8587 -1.4583 -0.7036
   69DG     H21 1585   2.482   5.317   5.143  0.7787 -2.1564 -0.3534
   69DG     H22 1586   2.673   5.143   5.263  1.9735  0.1532 -0.6989
   69DG     H23 1587   2.720   5.266   5.147 -0.7096  2.3388  1.9522
   70DG      C1 1588   4.941   2.967   3.767  0.1619 -0.0652 -0.3675
   70DG      C2 1589   4.544   2.992   4.404  0.1359  0.8735  0.4944
   70DG      H3 1590   4.998   2.904   3.699  1.6555 -1.1275  1.2991
   70DG      H4 1591   5.009   3.038   3.794 -1.6541 -1.5610 -1.2220
   70DG      H5 1592   4.864   3.026   3.702  2.2784 -0.8858  1.8361
   70DG      H6 1593   4.607   3.045   4.479 -1.4231  1.3146 -2.1443
   70DG      H7 1594   4.506   3.074   4.356 -3.0651 -3.3623  1.4350
   70DG      H8 1595   4.461   2.931   4.447 -0.8675  0.9574  2.3592
   70DG      O9 1596   4.882   2.907   3.877  0.6253 -0.2718 -0.0753
   70DG     O10 1597   4.611   2.917   4.301  0.0279  0.5092  0.3316
   70DG     C11 1598   4.967   2.823   3.956  0.4793 -0.2402 -0.9624
   70DG     C12 1599   4.688   2.802   4.361  0.4010  0.0472 -0.8190
   70DG     H13 1600   5.050   2.880   4.001 -0.3338 -0.4147 -0.8373
   70DG     H14 1601   5.016   2.750   3.891 -0.4086 -1.2753 -0.7217
   70DG     H15 1602   4.625   2.738   4.433  0.0098 -0.4645  1.1111
   70DG     H16 1603   4.764   2.849   4.417 -2.5299 -0.3966 -1.7581
   70DG     C17 1604   4.894   2.735   4.065 -0.0386 -0.0713 -0.2732
   70DG     C18 1605   4.747   2.716   4.249 -0.0977 -0.3057  0.2763
   70DG     O19 1606   4.811   2.803   4.156 -0.2767 -0.2259 -0.0474
   70DG     H20 1607   4.966   2.670   4.115  0.7467  0.4086  1.7675
   70DG     H21 1608   4.827   2.670   4.011 -0.6667 -0.2942 -1.0133
   70DG     H22 1609   4.825   2.649   4.289 -1.0966 -0.9489 -0.0907
   70DG     H23 1610   4.671   2.643   4.204 -2.5428  0.4436 -0.5318
   71DG      C1 1611   0.916   5.340   3.299  0.5251  0.2192 -0.2893
   71DG      C2 1612   0.176   5.269   3.311  1.0720  0.6067  0.3583
   71DG      H3 1613   0.897   5.437   3.264 -1.5658 -0.8594  1.9970
   71DG      H4 1614   0.937   5.278   3.212  1.0911  1.3982 -1.3144
   71DG      H5 1615   1.012   5.344   3.350 -0.3240  0.8308  3.9817
   71DG      H6 1616   0.159   5.241   3.203 -3.8095 -0.1079 -0.2613
   71DG      H7 1617   0.120   5.196   3.371 -0.5692  1.3435  0.0926
   71DG      H8 1618   0.122   5.362   3.322  0.4795  2.0897  0.3139
   71DG      O9 1619   0.801   5.280   3.362  0.0394  0.0358 -0.2631
   71DG     O10 1620   0.315   5.288   3.337 -0.3625 -0.2344  0.0443
   71DG     C11 1621   0.776   5.339   3.486 -0.2239  0.2938 -0.2079
   71DG     C12 1622   0.323   5.318   3.477 -0.0616  0.8420 -0.2818
   71DG     H13 1623   0.741   5.435   3.473 -0.3532 -0.9315 -1.1583
   71DG     H14 1624   0.863   5.335   3.546  0.4906 -0.8147 -0.7678
   71DG     H15 1625   0.283   5.230   3.525 -0.5105  2.4172  0.2311
   71DG     H16 1626   0.258   5.406   3.503  1.2983  2.1478 -1.7481
   71DG     C17 1627   0.677   5.242   3.551 -1.0670  0.7773 -0.2236
   71DG     C18 1628   0.461   5.342   3.529  0.3451  0.0510 -0.8677
   71DG     O19 1629   0.552   5.247   3.479 -0.0378 -0.1057 -0.2906
   71DG     H20 1630   0.667   5.268   3.653 -0.7122 -0.2706 -1.2612
   71DG     H21 1631   0.713   5.140   3.564 -1.1126  2.0780  3.0307
   71DG     H22 1632   0.507   5.426   3.486  0.8748 -2.2275 -1.8885
   71DG     H23 1633   0.456   5.346   3.637  0.2309 -3.3947 -0.3019
   72DG      C1 1634   2.678   5.125   2.191 -0.2265 -0.5860  0.1790
   72DG      C2 1635   2.561   5.379   2.915 -0.1996  0.1617  0.0861
   72DG      H3 1636   2.593   5.135   2.126  1.0190 -2.7952  0.8086
   72DG      H4 1637   2.705   5.018   2.187 -1.5807  0.1751 -0.8770
   72DG      H5 1638   2.755   5.191   2.152 -1.8976  1.0252 -0.3681
   72DG      H6 1639   2.600   5.481   2.935  0.2705  2.2781  1.9797
   72DG      H7 1640   2.497   5.366   3.000  1.6859 -0.3944 -1.4229
   72DG      H8 1641   2.646   5.308   2.913 -0.9593  0.4028 -0.4111
   72DG      O9 1642   2.650   5.161   2.331  0.3299 -0.0897  0.3052
   72DG     O10 1643   2.493   5.393   2.787  0.0124 -0.3516 -0.0592
   72DG     C11 1644   2.562   5.073   2.398  0.8055  0.3257  0.0928
   72DG     C12 1645   2.414   5.275   2.769 -1.0539  0.5546  0.2770
   72DG     H13 1646   2.602   4.974   2.407 -0.8076  0.6864  0.0331
   72DG     H14 1647   2.464   5.055   2.349  1.2464 -2.0540 -1.2937
   72DG     H15 1648   2.344   5.276   2.846 -0.3324 -0.2038 -0.5344
   72DG     H16 1649   2.471   5.184   2.794  0.4966 -3.2319 -1.3879
   72DG     C17 1650   2.535   5.122   2.536 -0.0905  0.0988 -0.5916
   72DG     C18 1651   2.367   5.271   2.623 -0.0178 -0.1419 -0.5021
   72DG     O19 1652   2.470   5.248   2.525 -0.3840  0.1548  0.1737
   72DG     H20 1653   2.620   5.129   2.598  2.5769 -1.9106  2.4846
   72DG     H21 1654   2.480   5.054   2.594  1.6259  1.9634  1.4050
   72DG     H22 1655   2.288   5.200   2.619 -0.1727  0.6275  1.4243
   72DG     H23 1656   2.318   5.367   2.602 -0.1669 -0.9895  1.4818
   73DG      C1 1657   1.877   3.176   2.388  0.3812 -0.1322  0.0087
   73DG      C2 1658   1.910   3.594   2.930 -0.2875  0.1141  0.0838
   73DG      H3 1659   1.969   3.191   2.338 -1.3548 -0.7569 -2.9730
   73DG      H4 1660   1.813   3.143   2.310 -1.4936  0.3505  2.0205
   73DG      H5 1661   1.882   3.094   2.454  0.6089  1.1073 -2.3274
   73DG      H6 1662   1.886   3.535   3.015  0.9959  0.4262  1.1717
   73DG      H7 1663   2.012   3.581   2.931 -2.4299  1.4052  1.2770
   73DG      H8 1664   1.900   3.694   2.964 -3.2754 -3.5053 -0.4180
   73DG      O9 1665   1.813   3.297   2.446 -0.1866 -0.2999  0.2720
   73DG     O10 1666   1.838   3.555   2.816 -0.7582  0.4030  0.4921
   73DG     C11 1667   1.678   3.264   2.469  0.2592 -0.6222 -0.4080
   73DG     C12 1668   1.701   3.586   2.828 -0.2389  0.1666 -0.2889
   73DG     H13 1669   1.676   3.174   2.538  1.4050 -0.4152  0.6319
   73DG     H14 1670   1.634   3.245   2.369  2.4380  1.1138 -0.9908
   73DG     H15 1671   1.696   3.695   2.838 -1.9138  0.9113 -0.3674
   73DG     H16 1672   1.653   3.535   2.911  1.0188  2.2069 -2.2143
   73DG     C17 1673   1.607   3.371   2.538 -0.5290 -1.0685 -0.1098
   73DG     C18 1674   1.614   3.537   2.709  0.1057 -0.6633 -0.3081
   73DG     O19 1675   1.663   3.412   2.669  0.2691 -0.2950 -0.1639
   73DG     H20 1676   1.507   3.333   2.547  0.4528  0.8427  1.7346
   73DG     H21 1677   1.604   3.459   2.470 -0.8892  0.9403  0.2158
   73DG     H22 1678   1.510   3.543   2.733  2.4150  0.1254 -0.1056
   73DG     H23 1679   1.627   3.607   2.621  0.4034  3.0751  0.9580
   74DG      C1 1680   4.224   4.542   0.792 -0.2766 -0.5919 -0.3370
   74DG      C2 1681   4.127   5.097   1.214  0.2162  0.5842 -0.2470
   74DG      H3 1682   4.131   4.502   0.824  0.4607  0.0526  1.3537
   74DG      H4 1683   4.299   4.479   0.826  0.0971 -1.8851  1.6592
   74DG      H5 1684   4.229   4.542   0.687 -1.0849  0.4051  1.5588
   74DG      H6 1685   4.021   5.071   1.200 -0.9610 -1.3265 -1.2527
   74DG      H7 1686   4.170   5.035   1.299 -0.1548 -1.4136  0.1973
   74DG      H8 1687   4.127   5.205   1.239  2.9619  1.3690 -0.7166
   74DG      O9 1688   4.254   4.676   0.839  0.1772  0.3112  0.3968
   74DG     O10 1689   4.191   5.091   1.087 -0.2421 -0.5441  0.4337
   74DG     C11 1690   4.397   4.703   0.819 -0.2444  0.0670  0.3348
   74DG     C12 1691   4.326   5.112   1.075 -0.6416  0.0470  0.0326
   74DG     H13 1692   4.436   4.655   0.721  0.0787 -2.8800 -2.4505
   74DG     H14 1693   4.449   4.649   0.903  2.6250  1.1102  0.0637
   74DG     H15 1694   4.365   5.058   1.160  0.1601  3.0617  2.2417
   74DG     H16 1695   4.355   5.221   1.093  0.7908  0.6324 -4.6442
   74DG     C17 1696   4.421   4.854   0.830 -0.0951 -0.5647  0.2671
   74DG     C18 1697   4.390   5.059   0.947  0.5242 -0.7945  0.1725
   74DG     O19 1698   4.370   4.921   0.947  0.1772 -0.3743  0.1190
   74DG     H20 1699   4.369   4.896   0.750 -2.6792  3.4885  3.7092
   74DG     H21 1700   4.524   4.878   0.815  0.6696  2.3963 -0.7412
   74DG     H22 1701   4.341   5.095   0.863  1.5447 -0.0013 -0.0644
   74DG     H23 1702   4.502   5.068   0.937 -0.6042 -0.9261  1.6310
   75DG      C1 1703   4.892   3.626   1.815 -0.6142 -0.7227 -0.3236
   75DG      C2 1704   5.174   3.086   2.057 -0.1876 -0.6591  0.3997
   75DG      H3 1705   4.818   3.685   1.865 -0.8967  0.2821 -1.9823
   75DG      H4 1706   4.868   3.659   1.711 -0.4122 -0.8962 -1.4825
   75DG      H5 1707   5.000   3.656   1.848 -0.7660  2.1873  2.9848
   75DG      H6 1708   5.171   3.038   2.156 -1.0004 -1.5819  1.6588
   75DG      H7 1709   5.221   3.008   1.995 -1.7036  0.7901 -1.2571
   75DG      H8 1710   5.244   3.172   2.071 -1.7622  2.6593  2.6997
   75DG      O9 1711   4.869   3.482   1.831 -0.0807  0.2571  0.6993
   75DG     O10 1712   5.054   3.143   2.010 -0.3132  0.2088 -0.5109
   75DG     C11 1713   4.745   3.435   1.790 -0.6485  0.0728 -0.0359
   75DG     C12 1714   4.947   3.048   1.991  0.2951  0.6098  0.0481
   75DG     H13 1715   4.714   3.475   1.694 -1.6630  0.8987  1.4115
   75DG     H14 1716   4.659   3.466   1.851  0.1493  0.0821 -0.3745
   75DG     H15 1717   4.912   3.026   2.097  1.4134  1.5395  2.0237
   75DG     H16 1718   4.989   2.952   1.954  2.1684  2.8552  0.5731
   75DG     C17 1719   4.758   3.284   1.778  0.4635  0.5299 -0.2260
   75DG     C18 1720   4.846   3.100   1.891 -0.9256 -0.3460  0.5368
   75DG     O19 1721   4.836   3.240   1.892  0.5450 -0.3097  0.9255
   75DG     H20 1722   4.810   3.274   1.684 -0.2595 -0.5348 -4.3727
   75DG     H21 1723   4.662   3.228   1.774  1.9962 -1.4732  0.2226
   75DG     H22 1724   4.881   3.083   1.794 -0.4617  0.1280  3.7961
   75DG     H23 1725   4.755   3.048   1.901  2.3692 -0.3733  0.0496
   76DG      C1 1726   0.102   0.176   3.288  0.2973  0.4984 -0.5380
   76DG      C2 1727   0.546   0.370   3.253  0.4055  0.0653 -0.2094
   76DG      H3 1728   0.010   0.154   3.334 -0.2019 -1.8198  0.8491
   76DG      H4 1729   0.180   0.120   3.335 -0.9014 -1.3229  1.3703
   76DG      H5 1730   0.097   0.146   3.184  1.3907  1.3963  0.7929
   76DG      H6 1731   0.595   0.383   3.348 -2.5894  0.5727 -0.4611
   76DG      H7 1732   0.494   0.278   3.270  1.3418 -4.1245  1.4825
   76DG      H8 1733   0.623   0.364   3.174 -0.7042  0.1064 -1.1035
   76DG      O9 1734   0.143   0.309   3.300  0.4537 -0.3821 -0.7083
   76DG     O10 1735   0.458   0.478   3.235  0.4363  0.9323 -0.0628
   76DG     C11 1736   0.043   0.396   3.255 -0.4608 -0.0260  0.5480
   76DG     C12 1737   0.373   0.463   3.119  0.0667  0.5445  0.0009
   76DG     H13 1738  -0.049   0.376   3.294  1.7250 -0.8018 -0.2025
   76DG     H14 1739   0.037   0.398   3.154 -0.1722  3.8713 -0.1020
   76DG     H15 1740   0.323   0.371   3.113 -0.8839 -0.4139 -2.1240
   76DG     H16 1741   0.435   0.466   3.029 -0.4889 -1.2438  1.4260
   76DG     C17 1742   0.078   0.538   3.284 -0.3777 -0.2333 -0.4095
   76DG     C18 1743   0.273   0.574   3.137  0.1596 -0.1828  0.3394
   76DG     O19 1744   0.214   0.577   3.271 -0.0612  0.2809 -0.6441
   76DG     H20 1745   0.058   0.549   3.392 -0.5747 -1.7723 -0.8105
   76DG     H21 1746   0.013   0.616   3.234 -1.6273  0.6469 -0.0164
   76DG     H22 1747   0.329   0.667   3.130 -3.9239 -0.3257 -0.9251
   76DG     H23 1748   0.194   0.586   3.064 -1.8340  2.5806 -0.9284
   77DG      C1 1749   4.320   3.091   5.194  0.2958 -0.1900 -0.0360
   77DG      C2 1750   4.074   3.665   5.071  0.4613  0.4659  0.2444
   77DG      H3 1751   4.280   3.018   5.118 -1.3953 -1.1900 -0.7362
   77DG      H4 1752   4.346   3.039   5.284  0.9575  3.1752  0.7521
   77DG      H5 1753   4.424   3.133   5.161  0.2713  1.1553 -1.1205
   77DG      H6 1754   4.102   3.753   5.123 -1.9188  0.8614 -0.8615
   77DG      H7 1755   4.155   3.645   5.004  1.5845  0.3913 -1.1364
   77DG      H8 1756   3.989   3.679   5.000 -1.0315  1.7168  0.6037
   77DG      O9 1757   4.221   3.191   5.208  0.2433 -0.0923 -0.0693
   77DG     O10 1758   4.046   3.555   5.151  0.0854  0.2626  0.1866
   77DG     C11 1759   4.098   3.136   5.265 -0.0906  0.3722 -0.6654
   77DG     C12 1760   3.952   3.572   5.256 -0.0160 -0.2434  0.5219
   77DG     H13 1761   4.111   3.101   5.367  3.0648 -1.4370  1.3432
   77DG     H14 1762   4.063   3.049   5.208  4.0840 -0.4777 -3.7638
   77DG     H15 1763   3.865   3.607   5.204 -2.0286  0.7123  1.5310
   77DG     H16 1764   3.979   3.662   5.319  2.9066  2.2821 -0.2352
   77DG     C17 1765   3.986   3.235   5.272  0.0091  0.5975 -0.5712
   77DG     C18 1766   3.921   3.446   5.334 -0.2245 -0.2433 -1.0085
   77DG     O19 1767   4.028   3.351   5.341 -0.2068  0.1899  0.0716
   77DG     H20 1768   3.897   3.188   5.315 -4.0161 -0.6200  2.2082
   77DG     H21 1769   3.971   3.262   5.166 -0.6855 -0.0598 -0.4735
   77DG     H22 1770   3.896   3.468   5.439 -1.0356  1.3350 -1.7516
   77DG     H23 1771   3.830   3.410   5.288 -1.1424  0.1491 -0.1253
   78DG      C1 1772   2.032   1.197   2.239 -1.0078 -0.2424  0.0759
   78DG      C2 1773   2.520   1.131   2.753  0.3796 -0.0250  0.1853
   78DG      H3 1774   2.133   1.209   2.197  0.3279  2.0338 -2.4403
   78DG      H4 1775   1.960   1.255   2.184 -0.9944  1.3405  2.2695
   78DG      H5 1776   2.004   1.099   2.214 -0.6511  0.1758  0.8604
   78DG      H6 1777   2.558   1.129   2.850  1.9411 -0.6761 -0.7466
   78DG      H7 1778   2.520   1.027   2.729  1.0502  1.5152  1.1770
   78DG      H8 1779   2.596   1.170   2.688 -0.8614 -0.1808  0.1568
   78DG      O9 1780   2.028   1.206   2.375 -0.1193  0.1217  0.5234
   78DG     O10 1781   2.407   1.213   2.738 -0.0738  0.1724  0.3881
   78DG     C11 1782   2.069   1.336   2.423 -0.0890  1.0268  0.2155
   78DG     C12 1783   2.298   1.159   2.799  0.0106 -0.2326  0.7123
   78DG     H13 1784   1.991   1.399   2.394  0.3060  1.7490  2.1909
   78DG     H14 1785   2.166   1.365   2.380  3.4813  0.3439  1.2825
   78DG     H15 1786   2.316   1.178   2.906 -0.6556  0.8547  0.8106
   78DG     H16 1787   2.293   1.050   2.784 -1.7332 -1.6999 -0.8888
   78DG     C17 1788   2.075   1.337   2.573  0.1597  0.2300 -0.7978
   78DG     C18 1789   2.167   1.227   2.753  0.5744 -0.1625 -0.5358
   78DG     O19 1790   2.174   1.245   2.613 -0.0187 -0.8064  0.0798
   78DG     H20 1791   1.977   1.318   2.619  0.9117 -2.8783 -1.1666
   78DG     H21 1792   2.105   1.434   2.611 -1.9440 -0.9425  0.8218
   78DG     H22 1793   2.078   1.167   2.771 -0.4844  0.7818 -1.2534
   78DG     H23 1794   2.158   1.322   2.810 -2.7785 -0.2121 -0.3288
   79DG      C1 1795   3.973   1.045   1.076 -0.4983 -0.2087  0.0844
   79DG      C2 1796   3.482   1.041   1.562 -0.4196 -0.1961  0.4688
   79DG      H3 1797   4.050   0.992   1.012  1.0030  0.8846 -0.1348
   79DG      H4 1798   4.034   1.121   1.127 -3.5222  1.5113 -3.3691
   79DG      H5 1799   3.895   1.106   1.028  0.3516  0.6594 -1.6465
   79DG      H6 1800   3.477   1.148   1.539 -2.3742 -0.3879 -0.3993
   79DG      H7 1801   3.398   0.989   1.512  0.3953  0.2642  1.7288
   79DG      H8 1802   3.461   1.036   1.664  2.0643 -1.6996 -0.1398
   79DG      O9 1803   3.909   0.966   1.170 -1.1062  0.0760 -0.0177
   79DG     O10 1804   3.611   0.996   1.529  0.5195  0.3290  0.3028
   79DG     C11 1805   4.008   0.906   1.258  0.0740 -0.7577  0.9795
   79DG     C12 1806   3.619   0.852   1.538 -0.5016 -0.0877  0.2505
   79DG     H13 1807   4.052   0.991   1.312  1.6241  1.5616 -1.3949
   79DG     H14 1808   4.087   0.855   1.205 -1.1873 -0.3190 -1.9561
   79DG     H15 1809   3.556   0.808   1.463 -1.2645 -1.6703  2.4641
   79DG     H16 1810   3.597   0.800   1.629  2.2963 -4.1710  3.2892
   79DG     C17 1811   3.943   0.804   1.351 -0.0900 -0.1104  0.2614
   79DG     C18 1812   3.763   0.811   1.511 -0.3442 -0.5208 -0.7933
   79DG     O19 1813   3.821   0.861   1.392 -0.1441 -0.4232  0.4231
   79DG     H20 1814   4.015   0.792   1.442  0.9430 -1.3713 -0.2292
   79DG     H21 1815   3.927   0.709   1.308  0.3023 -1.2646  0.1137
   79DG     H22 1816   3.822   0.849   1.595  0.1506  0.0864  1.5798
   79DG     H23 1817   3.780   0.702   1.519 -1.4796 -3.5784 -1.1212
   80DG      C1 1818   2.788   4.213   1.922  0.0325  0.3448  0.5589
   80DG      C2 1819   2.682   3.702   1.240 -0.0819 -0.3655  0.1684
   80DG      H3 1820   2.878   4.158   1.942 -1.7098 -0.9011  0.4050
   80DG      H4 1821   2.768   4.261   2.020 -1.0501 -0.3588 -0.0231
   80DG      H5 1822   2.811   4.285   1.849 -0.4863  3.7839  1.0274
   80DG      H6 1823   2.744   3.647   1.306 -0.4154 -0.3401  0.3441
   80DG      H7 1824   2.605   3.627   1.211  1.8598  0.0638  0.3387
   80DG      H8 1825   2.755   3.723   1.163  1.3557 -1.2276 -2.8762
   80DG      O9 1826   2.685   4.120   1.881 -0.2741  0.3541 -0.1967
   80DG     O10 1827   2.633   3.819   1.305  0.5529  0.2850 -0.1773
   80DG     C11 1828   2.713   4.080   1.745 -0.0102 -0.1610  0.0958
   80DG     C12 1829   2.540   3.777   1.410 -0.0597 -0.8516  0.2649
   80DG     H13 1830   2.807   4.022   1.731  0.0289  0.6107  1.6182
   80DG     H14 1831   2.727   4.170   1.685 -0.5407 -1.3663 -2.4202
   80DG     H15 1832   2.588   3.706   1.473 -0.1315  0.8997  2.5962
   80DG     H16 1833   2.452   3.736   1.360 -0.3826  3.0854  0.2759
   80DG     C17 1834   2.597   3.996   1.698  0.7747 -0.5557 -0.4806
   80DG     C18 1835   2.497   3.879   1.517 -0.2970  0.5964  0.0631
   80DG     O19 1836   2.615   3.943   1.573 -1.1431  0.0606  0.3890
   80DG     H20 1837   2.506   4.047   1.685 -1.2519 -0.3617 -1.3309
   80DG     H21 1838   2.572   3.915   1.760  1.2870  1.9590  0.9982
   80DG     H22 1839   2.440   3.967   1.479  1.1220  0.7752  2.2796
   80DG     H23 1840   2.441   3.832   1.597 -0.9154  1.7574  1.5690
   81DG      C1 1841   4.685   2.425   0.448  0.0680  0.0231 -0.2239
   81DG      C2 1842   5.403   2.660   0.662 -0.4677 -0.5353 -0.4716
   81DG      H3 1843   4.601   2.412   0.515  2.2661 -1.3834 -1.5756
   81DG      H4 1844   4.735   2.334   0.414 -1.6522 -0.5265 -1.6520
   81DG      H5 1845   4.634   2.480   0.368 -0.0999 -2.2167  1.9281
   81DG      H6 1846   5.349   2.684   0.757 -0.0846 -0.1664  2.3667
   81DG      H7 1847   5.495   2.615   0.679 -2.8610  1.9326 -0.1976
   81DG      H8 1848   5.420   2.761   0.619 -0.4456 -2.7646 -1.1496
   81DG      O9 1849   4.774   2.517   0.512 -0.1518  0.0355 -0.5429
   81DG     O10 1850   5.319   2.586   0.572  0.3781 -0.4957  0.2121
   81DG     C11 1851   4.827   2.484   0.638  0.4454 -0.0302 -0.6403
   81DG     C12 1852   5.271   2.451   0.604  0.3963 -0.0532 -0.8197
   81DG     H13 1853   4.875   2.393   0.626 -2.8995  1.6518 -0.2550
   81DG     H14 1854   4.752   2.460   0.712 -1.5297  0.4566 -0.7426
   81DG     H15 1855   5.347   2.404   0.662  0.7920  1.6766 -2.1457
   81DG     H16 1856   5.278   2.388   0.521 -1.5229 -2.2442 -0.6019
   81DG     C17 1857   4.927   2.602   0.679 -0.4600  0.1260  0.0788
   81DG     C18 1858   5.134   2.470   0.675 -0.2769 -0.3167  0.0915
   81DG     O19 1859   5.048   2.572   0.618 -0.7286  0.5444  0.3838
   81DG     H20 1860   4.940   2.621   0.789  0.0009  0.2590  1.4363
   81DG     H21 1861   4.884   2.698   0.644  0.3313  1.9805 -0.1990
   81DG     H22 1862   5.079   2.374   0.692 -0.2954  3.8415  3.1333
   81DG     H23 1863   5.151   2.515   0.780 -0.9223  0.2223 -0.0553
   82DG      C1 1864   1.945   0.520   0.957  0.3887  0.6369  0.3209
   82DG      C2 1865   2.038   1.179   0.744  0.3380  0.4517 -0.4067
   82DG      H3 1866   1.872   0.434   0.971  1.6520 -0.3787  0.8828
   82DG      H4 1867   2.000   0.527   1.051 -1.8114  0.9017  1.6153
   82DG      H5 1868   2.003   0.498   0.860  1.1521 -0.1342 -0.6762
   82DG      H6 1869   2.052   1.190   0.643 -0.2428  0.7361  0.8922
   82DG      H7 1870   2.038   1.280   0.788 -1.5147  0.5927  3.7124
   82DG      H8 1871   2.122   1.115   0.773  2.9494  0.4800 -0.3913
   82DG      O9 1872   1.876   0.640   0.935 -0.0901 -0.3175  0.3075
   82DG     O10 1873   1.919   1.109   0.791 -0.1373  0.0872  0.4914
   82DG     C11 1874   1.803   0.644   0.813 -0.5846 -0.2598  0.1779
   82DG     C12 1875   1.810   1.099   0.700  0.6084 -0.4938  0.5038
   82DG     H13 1876   1.737   0.559   0.824  1.7857  1.6622  0.3819
   82DG     H14 1877   1.870   0.647   0.727  0.6675 -0.2956 -0.4587
   82DG     H15 1878   1.854   1.073   0.609 -1.1647 -0.0996  2.4182
   82DG     H16 1879   1.764   1.196   0.682 -1.4667 -0.0442  1.5064
   82DG     C17 1880   1.716   0.767   0.808  0.5762  0.6944  0.4949
   82DG     C18 1881   1.715   1.002   0.759 -0.5223  0.1833  0.1970
   82DG     O19 1882   1.788   0.881   0.788 -0.1996  0.7507 -0.1088
   82DG     H20 1883   1.650   0.777   0.894  1.8784  1.1386 -0.0838
   82DG     H21 1884   1.658   0.750   0.717  0.2745 -0.3570 -1.6205
   82DG     H22 1885   1.673   1.051   0.842  0.4960  0.0081 -3.7961
   82DG     H23 1886   1.625   0.978   0.695 -2.8952  0.5721 -1.0114
   83DG      C1 1887   5.426   4.834   4.214  0.0505 -0.1781 -0.4333
   83DG      C2 1888   5.738   4.315   3.926  0.1531 -0.3864 -0.4583
   83DG      H3 1889   5.386   4.769   4.291  0.2209 -2.9385 -1.0411
   83DG      H4 1890   5.359   4.827   4.129 -1.3251 -0.4257  0.9411
   83DG      H5 1891   5.429   4.947   4.240  2.1770  2.3864 -4.7524
   83DG      H6 1892   5.700   4.333   3.820 -0.7643  0.1264 -0.5088
   83DG      H7 1893   5.810   4.236   3.938 -2.6238 -0.3468  2.7045
   83DG      H8 1894   5.650   4.272   3.981 -1.1012 -1.2559  0.1604
   83DG      O9 1895   5.559   4.788   4.175  0.7099 -0.5795  0.1770
   83DG     O10 1896   5.779   4.434   3.994  0.2026 -0.1640  1.0034
   83DG     C11 1897   5.619   4.890   4.094  0.0550  0.1231 -0.5258
   83DG     C12 1898   5.852   4.517   3.907 -0.1127 -0.2136 -0.9179
   83DG     H13 1899   5.629   4.983   4.151 -0.9437  0.2680 -0.3734
   83DG     H14 1900   5.555   4.915   4.005  0.0939 -2.2438 -0.1050
   83DG     H15 1901   5.791   4.545   3.818  0.3634  0.6141  0.5757
   83DG     H16 1902   5.951   4.475   3.883 -0.5615  2.9414  0.8773
   83DG     C17 1903   5.756   4.834   4.060 -0.2831  0.6679 -0.0792
   83DG     C18 1904   5.872   4.655   3.975  0.8156  0.3933 -0.4148
   83DG     O19 1905   5.748   4.697   4.024 -0.2366  0.5594 -0.1142
   83DG     H20 1906   5.833   4.856   4.135  0.2972 -0.2923 -0.5685
   83DG     H21 1907   5.794   4.884   3.973  1.8527  0.1842 -0.5982
   83DG     H22 1908   5.945   4.646   4.065  1.9022 -0.2963  0.2563
   83DG     H23 1909   5.932   4.724   3.917  2.0214  0.8694 -0.5406
   84DG      C1 1910   3.323   3.933   0.271  0.4526  0.0808  0.1961
   84DG      C2 1911   3.864   3.797   0.556 -0.6716 -0.0855 -0.3760
   84DG      H3 1912   3.299   3.835   0.308 -0.6649 -2.5967  3.1995
   84DG      H4 1913   3.237   3.957   0.212 -1.3931  1.0536  2.6540
   84DG      H5 1914   3.318   4.000   0.347 -2.9068 -0.3739 -1.6936
   84DG      H6 1915   3.968   3.783   0.586  0.7556  1.6176 -0.7694
   84DG      H7 1916   3.820   3.863   0.628 -0.9092  2.4566 -3.2685
   84DG      H8 1917   3.814   3.701   0.560  0.9109  1.2671 -0.3440
   84DG      O9 1918   3.452   3.941   0.221  0.0898  0.2922  0.2588
   84DG     O10 1919   3.847   3.854   0.427 -0.2663  0.1983  0.2669
   84DG     C11 1920   3.478   3.871   0.105 -0.0738 -0.0097  0.7747
   84DG     C12 1921   3.904   3.780   0.316 -0.3592  0.2359 -0.2904
   84DG     H13 1922   3.419   3.912   0.018 -0.4543  0.4928 -0.3641
   84DG     H14 1923   3.467   3.763   0.123 -1.0828 -1.4081  0.9921
   84DG     H15 1924   3.872   3.680   0.318  0.0298 -0.2346  1.3621
   84DG     H16 1925   4.017   3.796   0.309  1.7780 -0.2210 -1.9235
   84DG     C17 1926   3.625   3.894   0.089  0.1053  0.2216 -0.7368
   84DG     C18 1927   3.838   3.853   0.199 -0.3667  0.2472  0.3350
   84DG     O19 1928   3.693   3.842   0.209 -0.2123 -0.1838 -0.0276
   84DG     H20 1929   3.655   3.999   0.075  0.3183 -0.5210 -0.3172
   84DG     H21 1930   3.659   3.858  -0.005 -3.7192 -2.4243  0.0718
   84DG     H22 1931   3.879   3.949   0.201  0.4436  1.8537  0.4038
   84DG     H23 1932   3.870   3.802   0.111  0.4240  2.3768 -4.8541
   85DG      C1 1933   4.739   3.340   5.040 -0.1981 -0.2964 -0.6874
   85DG      C2 1934   4.963   3.604   4.516  0.2318 -0.8598 -0.3078
   85DG      H3 1935   4.685   3.427   5.077 -0.7636  1.9160  1.1389
   85DG      H4 1936   4.848   3.341   5.056  0.4330  1.9999 -1.9896
   85DG      H5 1937   4.684   3.261   5.088  0.9565  1.6718 -1.4060
   85DG      H6 1938   4.927   3.695   4.563 -1.8174 -1.4751 -1.7273
   85DG      H7 1939   5.049   3.586   4.579 -3.1552 -0.3963 -0.5404
   85DG      H8 1940   4.995   3.641   4.416  1.9212 -1.5959 -2.2705
   85DG      O9 1941   4.710   3.318   4.903  0.4685  0.5974  0.2965
   85DG     O10 1942   4.861   3.510   4.523  0.0990  0.0300 -0.0972
   85DG     C11 1943   4.732   3.180   4.859 -0.1948  0.2033  0.4974
   85DG     C12 1944   4.894   3.379   4.470  0.0855 -0.5215  0.3067
   85DG     H13 1945   4.658   3.109   4.911 -1.0107  2.2997 -1.0802
   85DG     H14 1946   4.837   3.150   4.889  0.2377  2.2984 -2.0802
   85DG     H15 1947   4.992   3.341   4.506 -1.0299  0.6943 -0.3463
   85DG     H16 1948   4.900   3.384   4.354  3.7160  3.3729  1.6163
   85DG     C17 1949   4.716   3.165   4.706  0.0083 -0.1918 -0.1281
   85DG     C18 1950   4.794   3.274   4.509  0.0498  0.1524  0.5216
   85DG     O19 1951   4.811   3.250   4.650 -0.0811  0.3366 -0.0407
   85DG     H20 1952   4.608   3.196   4.685 -0.3689  1.4161  0.2245
   85DG     H21 1953   4.742   3.068   4.670 -1.4794  0.3188 -0.0778
   85DG     H22 1954   4.695   3.306   4.485  1.0159  1.5489 -1.3342
   85DG     H23 1955   4.819   3.183   4.445  0.4021 -1.3331 -1.8286
   86DG      C1 1956   3.280   1.915   4.753 -0.1251  0.2498 -0.5724
   86DG      C2 1957   3.378   2.032   5.400 -0.0929 -1.0265  0.6838
   86DG      H3 1958   3.279   2.019   4.717  0.0675 -0.1219 -0.7437
   86DG      H4 1959   3.237   1.858   4.678  0.8485  3.0643  2.5957
   86DG      H5 1960   3.378   1.877   4.754 -1.4361 -2.0021 -1.0458
   86DG      H6 1961   3.466   1.979   5.362 -0.9557 -2.6914 -1.3816
   86DG      H7 1962   3.392   2.140   5.383 -2.5420  2.2953 -2.3937
   86DG      H8 1963   3.367   2.008   5.512 -1.4313 -0.6941  0.9610
   86DG      O9 1964   3.211   1.894   4.876 -0.0686 -0.3401  0.1315
   86DG     O10 1965   3.267   1.986   5.314 -0.5462 -0.1944  0.2088
   86DG     C11 1966   3.087   1.958   4.877 -0.5243  0.1919  0.7860
   86DG     C12 1967   3.152   2.061   5.331 -0.4386 -0.6463  0.1050
   86DG     H13 1968   3.028   1.907   4.807 -0.0539  1.1365  1.4345
   86DG     H14 1969   3.096   2.062   4.852 -0.6140  0.0064 -4.1848
   86DG     H15 1970   3.164   2.167   5.304 -0.4544  0.5407  2.0733
   86DG     H16 1971   3.129   2.075   5.443 -0.3075  0.5822  2.4085
   86DG     C17 1972   3.013   1.955   5.009 -0.2902  0.4043  0.7563
   86DG     C18 1973   3.040   2.004   5.242 -0.3264  0.0718  0.3473
   86DG     O19 1974   3.099   2.000   5.111  0.0116 -0.3773  0.3690
   86DG     H20 1975   2.975   1.859   5.022  3.3520  2.4585 -4.2993
   86DG     H21 1976   2.942   2.035   5.009 -2.5883 -1.5286 -0.0602
   86DG     H22 1977   3.012   1.908   5.281  0.6438 -0.6076  0.7600
   86DG     H23 1978   2.952   2.072   5.237  1.5637  0.3827 -3.2036
   87DG      C1 1979   0.500   1.654   2.265 -0.2965 -0.4721 -0.4304
   87DG      C2 1980   0.681   2.073   1.840 -0.4494  0.1292 -0.5343
   87DG      H3 1981   0.509   1.758   2.306  2.6618  0.7257 -1.1316
   87DG      H4 1982   0.590   1.597   2.289  0.3086  0.6730  0.9592
   87DG      H5 1983   0.410   1.599   2.283  0.5746  0.4604  1.9550
   87DG      H6 1984   0.601   2.135   1.875 -0.7156  0.2112 -0.9983
   87DG      H7 1985   0.765   2.092   1.905  0.2580  0.0348  0.8205
   87DG      H8 1986   0.727   2.110   1.743 -1.1558  0.4427 -0.9661
   87DG      O9 1987   0.502   1.662   2.122 -0.3262  0.4651  0.0082
   87DG     O10 1988   0.640   1.933   1.826 -0.7361 -0.3362 -0.3910
   87DG     C11 1989   0.520   1.533   2.058 -0.3929 -0.3868 -0.3058
   87DG     C12 1990   0.737   1.842   1.776  0.1550 -0.5313  0.0910
   87DG     H13 1991   0.431   1.478   2.073 -0.9243 -0.2956  0.5583
   87DG     H14 1992   0.595   1.480   2.106 -2.6706  0.8857 -0.4562
   87DG     H15 1993   0.830   1.843   1.829  0.4658 -0.2502 -3.3802
   87DG     H16 1994   0.764   1.871   1.673  0.2749  0.0846 -0.2109
   87DG     C17 1995   0.543   1.553   1.904  0.4786  0.0657 -0.3099
   87DG     C18 1996   0.674   1.700   1.770 -0.9457  0.0297 -0.5933
   87DG     O19 1997   0.622   1.675   1.898  0.2852  0.7557  0.4538
   87DG     H20 1998   0.448   1.558   1.853  1.6686  0.6900 -0.7614
   87DG     H21 1999   0.599   1.476   1.860 -1.6606 -1.2409 -0.0479
   87DG     H22 2000   0.589   1.705   1.699 -1.4607  2.7883  2.3078
   87DG     H23 2001   0.756   1.624   1.747  1.5736  0.1498 -2.9470
   88DG      C1 2002   1.629   0.630   2.320  0.5088  0.0291 -0.8860
   88DG      C2 2003   1.535  -0.067   2.276 -0.3309 -0.1951  0.1029
   88DG      H3 2004   1.656   0.721   2.265  2.2273  0.1526 -0.4937
   88DG      H4 2005   1.692   0.631   2.414  0.6278  1.3371  1.6488
   88DG      H5 2006   1.528   0.646   2.354 -1.8082 -0.0382 -1.7693
   88DG      H6 2007   1.462  -0.125   2.222 -1.1817  0.9897  1.9665
   88DG      H7 2008   1.630  -0.121   2.293  0.8005 -0.8196  1.8919
   88DG      H8 2009   1.486  -0.048   2.363 -0.1456  0.2489 -1.7271
   88DG      O9 2010   1.637   0.513   2.242 -0.3053  0.6881 -0.4928
   88DG     O10 2011   1.555   0.056   2.209 -0.0759  0.2046 -0.0042
   88DG     C11 2012   1.753   0.515   2.152  0.0606  0.0037  0.8166
   88DG     C12 2013   1.625   0.043   2.089 -0.1970  0.0261 -0.0108
   88DG     H13 2014   1.836   0.484   2.213  1.6812  0.7074 -0.6335
   88DG     H14 2015   1.775   0.610   2.102  0.6072 -2.2704 -0.9289
   88DG     H15 2016   1.589  -0.028   2.012 -0.9495  0.6684  1.0745
   88DG     H16 2017   1.729   0.011   2.101  0.7335  0.0573  0.2666
   88DG     C17 2018   1.715   0.406   2.044  0.0095 -0.7644  0.1853
   88DG     C18 2019   1.637   0.189   2.029 -0.3498  0.1311  0.4292
   88DG     O19 2020   1.705   0.285   2.110  0.2177 -0.2988  0.1352
   88DG     H20 2021   1.798   0.403   1.974  0.1360  0.8906 -0.3193
   88DG     H21 2022   1.622   0.437   1.995  1.7322  0.1989 -0.2755
   88DG     H22 2023   1.704   0.175   1.947  2.3403 -0.0176  1.7375
   88DG     H23 2024   1.545   0.220   1.987 -0.5574  0.9311 -3.0595
   89DG      C1 2025   3.726   2.449   0.491 -0.6406 -0.2890  0.4096
   89DG      C2 2026   3.031   2.710   0.626 -0.1029  1.1735 -0.0622
   89DG      H3 2027   3.646   2.403   0.432  0.4069  2.9256  0.3823
   89DG      H4 2028   3.779   2.380   0.559  0.0027  2.6868 -0.3338
   89DG      H5 2029   3.801   2.496   0.431  0.2148 -1.4665  0.1713
   89DG      H6 2030   3.033   2.767   0.721  0.1907 -2.0242 -0.0964
   89DG      H7 2031   2.975   2.751   0.552  1.6471 -2.5085  0.6946
   89DG      H8 2032   2.988   2.613   0.665 -1.7493  1.5367 -0.2615
   89DG      O9 2033   3.670   2.547   0.565  0.6644  0.0887  0.3996
   89DG     O10 2034   3.162   2.691   0.572 -0.5231 -0.3134 -0.5105
   89DG     C11 2035   3.572   2.504   0.653 -0.4198 -0.2253  0.6172
   89DG     C12 2036   3.173   2.585   0.477  0.1329 -1.0345  0.3829
   89DG     H13 2037   3.564   2.576   0.734  0.4702  1.6823  1.3123
   89DG     H14 2038   3.603   2.416   0.700 -0.8289 -0.4469  2.3756
   89DG     H15 2039   3.106   2.597   0.399 -0.9718  3.4007 -0.2001
   89DG     H16 2040   3.159   2.490   0.522 -0.3862  1.4630 -0.2609
   89DG     C17 2041   3.438   2.493   0.590 -0.4729  0.3953 -0.6639
   89DG     C18 2042   3.316   2.606   0.425  0.1057  0.3044 -0.4776
   89DG     O19 2043   3.406   2.619   0.533 -0.4364  0.4722  0.0551
   89DG     H20 2044   3.359   2.473   0.662 -0.3719  0.1042 -0.1955
   89DG     H21 2045   3.437   2.406   0.525 -1.9139 -0.2860 -0.2415
   89DG     H22 2046   3.342   2.522   0.370  1.1323 -0.6042 -1.9456
   89DG     H23 2047   3.321   2.692   0.359 -2.4846  0.0260  1.0915
   90DG      C1 2048   4.045   1.690   4.997 -0.2552  0.1262 -0.4118
   90DG      C2 2049   4.494   1.659   5.472 -0.8535  0.1287 -0.0397
   90DG      H3 2050   3.954   1.671   5.053 -0.1517  1.8087  0.2558
   90DG      H4 2051   4.113   1.603   4.993 -0.3789 -0.1522 -0.3860
   90DG      H5 2052   4.021   1.704   4.896 -2.2159 -0.5193 -0.0758
   90DG      H6 2053   4.449   1.637   5.571  0.3461  0.1047  3.6980
   90DG      H7 2054   4.496   1.570   5.409 -2.6414  1.1775  0.0763
   90DG      H8 2055   4.593   1.685   5.503  1.8507  2.1487 -1.9861
   90DG      O9 2056   4.126   1.792   5.059 -0.0737  0.4320 -0.2324
   90DG     O10 2057   4.428   1.772   5.402  0.2372  0.1101 -0.2790
   90DG     C11 2058   4.225   1.845   4.970 -0.2730 -0.1812 -0.6720
   90DG     C12 2059   4.530   1.852   5.333  0.1305 -0.4903 -0.2140
   90DG     H13 2060   4.178   1.900   4.892  0.5021 -1.1645 -1.2114
   90DG     H14 2061   4.294   1.767   4.924 -1.7081 -1.0965 -1.7598
   90DG     H15 2062   4.582   1.787   5.260  1.2030 -0.7451 -1.0122
   90DG     H16 2063   4.598   1.903   5.407 -0.4606  0.8857 -0.2470
   90DG     C17 2064   4.317   1.941   5.047 -0.7479  0.3930  0.5512
   90DG     C18 2065   4.467   1.954   5.235  0.1489  0.7751  0.1981
   90DG     O19 2066   4.385   1.871   5.147 -0.0479  0.4752  0.6452
   90DG     H20 2067   4.265   2.023   5.099 -1.1105 -0.1267  3.3521
   90DG     H21 2068   4.391   1.979   4.976  3.4277  0.1424  0.8478
   90DG     H22 2069   4.407   2.025   5.295  0.9871  2.0796  0.2883
   90DG     H23 2070   4.550   2.010   5.188 -2.1542 -1.4543  0.1325
   91DG      C1 2071   1.355   4.193   2.379  0.0861 -0.9227  0.4616
   91DG      C2 2072   0.805   4.507   2.111  0.9222 -0.1315  0.3864
   91DG      H3 2073   1.323   4.280   2.444  0.9262  2.2346 -0.2197
   91DG      H4 2074   1.466   4.187   2.395 -0.0418  0.4737 -0.9746
   91DG      H5 2075   1.319   4.096   2.409 -0.4199  0.3634  0.6194
   91DG      H6 2076   0.720   4.458   2.160 -0.3738  2.9272  0.8972
   91DG      H7 2077   0.842   4.581   2.182  3.0874 -1.1506  1.8479
   91DG      H8 2078   0.778   4.561   2.022 -0.6605  0.4312 -2.6284
   91DG      O9 2079   1.309   4.223   2.243 -0.3479  0.3672  0.3334
   91DG     O10 2080   0.924   4.418   2.086 -0.1389  0.3209 -0.4543
   91DG     C11 2081   1.292   4.107   2.159 -0.6749 -0.4156  0.0637
   91DG     C12 2082   0.896   4.309   2.006 -0.2714 -0.2119  0.1333
   91DG     H13 2083   1.233   4.027   2.196 -1.2558  4.1391  0.7632
   91DG     H14 2084   1.390   4.062   2.150 -0.4386  1.3498  0.9895
   91DG     H15 2085   0.840   4.342   1.914 -2.0866 -0.9916  1.9192
   91DG     H16 2086   0.839   4.245   2.069 -0.0694  0.5823 -1.2275
   91DG     C17 2087   1.232   4.151   2.026  0.0358 -0.1890 -0.1924
   91DG     C18 2088   1.024   4.239   1.958  0.4733  0.3321 -0.1887
   91DG     O19 2089   1.107   4.204   2.061  0.1187  0.9320 -0.1510
   91DG     H20 2090   1.209   4.062   1.965  1.1459 -0.1769 -0.1263
   91DG     H21 2091   1.283   4.225   1.959 -3.2862  1.8964 -0.8580
   91DG     H22 2092   0.996   4.148   1.901  1.3427 -0.1922 -2.5696
   91DG     H23 2093   1.064   4.308   1.886  0.1463  1.5804 -0.2097
   92DG      C1 2094   3.132   2.633   0.097 -0.7100  0.1241  0.2294
   92DG      C2 2095   2.835   3.100  -0.411 -0.0925 -0.5443  0.2997
   92DG      H3 2096   3.228   2.589   0.127  1.2281  2.9962 -0.0763
   92DG      H4 2097   3.075   2.569   0.030  0.1953  2.2357 -0.9225
   92DG      H5 2098   3.072   2.660   0.185 -1.7206  2.0955 -0.0299
   92DG      H6 2099   2.738   3.071  -0.365  0.8910 -1.1807  0.7132
   92DG      H7 2100   2.848   3.207  -0.414  0.3103  0.0658  1.6481
   92DG      H8 2101   2.827   3.051  -0.510  3.7729  0.0183  0.1661
   92DG      O9 2102   3.154   2.765   0.035  0.8446 -0.4908 -0.4830
   92DG     O10 2103   2.952   3.056  -0.343 -0.5201  0.0875 -0.6197
   92DG     C11 2104   3.238   2.755  -0.081 -0.0685  0.5734 -0.0447
   92DG     C12 2105   2.986   3.130  -0.227  0.2976 -0.4194  0.5030
   92DG     H13 2106   3.185   2.685  -0.151  1.4578 -2.9193 -0.2572
   92DG     H14 2107   3.339   2.722  -0.052 -0.0249  1.6058  0.6960
   92DG     H15 2108   2.907   3.122  -0.148  2.1727 -0.9723  1.8269
   92DG     H16 2109   3.000   3.235  -0.248  1.1454  0.4195 -1.6728
   92DG     C17 2110   3.250   2.890  -0.145  0.1604  0.0694  0.3529
   92DG     C18 2111   3.111   3.074  -0.168 -0.1324  0.5741 -0.2089
   92DG     O19 2112   3.119   2.937  -0.187 -0.0298 -0.0570  0.0596
   92DG     H20 2113   3.310   2.887  -0.237 -0.6745 -1.3545 -2.0472
   92DG     H21 2114   3.295   2.965  -0.074 -1.1770 -0.2712 -1.1228
   92DG     H22 2115   3.196   3.124  -0.214 -1.7935 -1.6844  4.5159
   92DG     H23 2116   3.125   3.093  -0.061  0.6539 -0.3785  0.8174
   93DG      C1 2117   0.091   1.816   4.215 -0.3293  0.1913  0.8952
   93DG      C2 2118   0.037   2.480   3.950  0.6291  0.2762 -0.1056
   93DG      H3 2119   0.073   1.713   4.194 -0.9251 -2.2305  3.8390
   93DG      H4 2120   0.044   1.826   4.317 -2.0551 -1.1280  1.9131
   93DG      H5 2121   0.192   1.844   4.240 -1.0093 -0.3449  0.6646
   93DG      H6 2122   0.126   2.499   4.006  0.1739 -0.4784 -1.5560
   93DG      H7 2123   0.045   2.529   3.858  0.7696  3.6208 -1.5546
   93DG      H8 2124  -0.039   2.529   4.010  2.0603  1.1130 -0.1910
   93DG      O9 2125   0.037   1.900   4.113  0.2615  0.3403 -0.4567
   93DG     O10 2126   0.007   2.341   3.931 -0.4522  0.0209 -0.0315
   93DG     C11 2127  -0.101   1.886   4.085  0.2613 -0.1357  0.6244
   93DG     C12 2128  -0.128   2.311   3.896  0.5909 -1.2917 -0.2730
   93DG     H13 2129  -0.160   1.921   4.158  3.1747  1.4270  3.2241
   93DG     H14 2130  -0.122   1.778   4.078 -0.7171  0.0103 -0.0661
   93DG     H15 2131  -0.171   2.371   3.813 -2.3662  1.7183 -0.6284
   93DG     H16 2132  -0.194   2.336   3.978 -0.2324  3.9500 -1.5778
   93DG     C17 2133  -0.150   1.956   3.958  0.3226 -0.0693 -0.6858
   93DG     C18 2134  -0.146   2.159   3.868  1.0034  0.3510 -0.6899
   93DG     O19 2135  -0.104   2.082   3.978 -0.1320 -0.0497  0.2334
   93DG     H20 2136  -0.265   1.946   3.953 -1.1391 -0.9196  0.5628
   93DG     H21 2137  -0.102   1.895   3.877  0.2186  0.4180 -2.2377
   93DG     H22 2138  -0.253   2.148   3.848 -0.4278  0.5733 -2.0243
   93DG     H23 2139  -0.082   2.126   3.795 -0.5127  0.4395  2.0064
   94DG      C1 2140   3.604   0.694   5.491  0.0871  0.2649 -0.4676
   94DG      C2 2141   3.383   0.505   4.849  0.6473  0.4097 -0.0497
   94DG      H3 2142   3.638   0.599   5.530 -1.8073 -0.8633  0.3115
   94DG      H4 2143   3.564   0.763   5.566  1.3905 -2.4149 -2.8947
   94DG      H5 2144   3.688   0.757   5.458  1.3121 -0.2240 -0.2096
   94DG      H6 2145   3.486   0.481   4.841  0.4611 -0.0312  1.5854
   94DG      H7 2146   3.329   0.456   4.765  0.4969  1.3998 -0.2678
   94DG      H8 2147   3.375   0.608   4.832  3.2647 -1.9847  0.7734
   94DG      O9 2148   3.520   0.657   5.387  0.3897 -0.7415 -0.5986
   94DG     O10 2149   3.353   0.449   4.976  0.0272 -0.2568  0.3684
   94DG     C11 2150   3.398   0.610   5.444  0.7887  0.6625 -0.7878
   94DG     C12 2151   3.219   0.466   5.020 -0.5471 -0.0283 -0.6740
   94DG     H13 2152   3.345   0.668   5.522  2.3583  0.7631  0.4395
   94DG     H14 2153   3.429   0.512   5.471 -1.0204  1.2086 -2.7564
   94DG     H15 2154   3.145   0.406   4.968 -0.8119  0.7836  0.0600
   94DG     H16 2155   3.195   0.570   4.996 -0.4359 -2.3283  1.1765
   94DG     C17 2156   3.290   0.591   5.336  0.3004  0.2668  0.1861
   94DG     C18 2157   3.226   0.427   5.168 -0.2184 -0.2792 -0.9675
   94DG     O19 2158   3.326   0.481   5.254 -0.1477 -0.7999  0.6481
   94DG     H20 2159   3.268   0.672   5.264 -1.3970  2.3818  0.2416
   94DG     H21 2160   3.188   0.583   5.384 -1.3596 -2.1488  1.2011
   94DG     H22 2161   3.129   0.437   5.211  0.5979 -1.3923 -2.3645
   94DG     H23 2162   3.242   0.315   5.170 -0.5388  0.1424 -1.8739
   95DG      C1 2163   4.067   4.096   0.795  0.3117 -0.5369  0.6053
   95DG      C2 2164   3.709   4.801   0.488  0.3028 -0.2581  0.4252
   95DG      H3 2165   4.138   4.085   0.715  0.2720 -3.7836  3.1178
   95DG      H4 2166   4.005   4.007   0.800 -0.5966 -0.3804  0.1471
   95DG      H5 2167   4.118   4.084   0.888 -2.4051 -2.3400  0.5288
   95DG      H6 2168   3.617   4.761   0.453 -1.7915 -1.0344 -0.1886
   95DG      H7 2169   3.689   4.905   0.492 -0.8779 -0.3002  0.2201
   95DG      H8 2170   3.786   4.794   0.404 -0.9939 -0.8131 -2.0502
   95DG      O9 2171   3.985   4.215   0.781 -0.1186 -0.1578  0.1633
   95DG     O10 2172   3.750   4.755   0.619  0.3837 -0.3906  0.3134
   95DG     C11 2173   3.892   4.235   0.893  0.2352  0.1439  0.4062
   95DG     C12 2174   3.770   4.620   0.624 -0.3016 -0.6711 -0.8585
   95DG     H13 2175   3.926   4.224   0.994 -1.7450  1.1988 -0.1026
   95DG     H14 2176   3.809   4.170   0.872 -1.1449 -0.7239 -2.9970
   95DG     H15 2177   3.852   4.602   0.559 -1.0894  2.3358 -1.3309
   95DG     H16 2178   3.674   4.577   0.597  1.5205 -3.4174 -0.8473
   95DG     C17 2179   3.853   4.385   0.902  0.2572  0.1811 -0.8497
   95DG     C18 2180   3.805   4.577   0.769  0.0318  0.2046  0.5383
   95DG     O19 2181   3.817   4.434   0.773  0.3054  0.5932 -0.4922
   95DG     H20 2182   3.942   4.433   0.944  0.7555 -2.2493  0.3793
   95DG     H21 2183   3.772   4.407   0.978  1.5502 -0.8251  0.1344
   95DG     H22 2184   3.895   4.618   0.803  0.6341  2.4508  0.3546
   95DG     H23 2185   3.720   4.600   0.834  0.7719  0.3060 -0.4107
   96DG      C1 2186   5.293   0.979   3.419  0.1636 -0.7231 -0.2146
   96DG      C2 2187   5.437   1.462   3.899 -0.3005 -0.3862 -0.1910
   96DG      H3 2188   5.289   1.054   3.337  4.4742  1.8941 -2.5083
   96DG      H4 2189   5.241   0.897   3.395  0.1094 -1.2754  1.6536
   96DG      H5 2190   5.396   0.949   3.428  0.5351  0.4422 -1.6114
   96DG      H6 2191   5.446   1.529   3.812 -1.4588  0.6378 -0.3970
   96DG      H7 2192   5.375   1.511   3.976  1.2419 -0.6964  0.9242
   96DG      H8 2193   5.528   1.439   3.944 -1.2821  3.4195 -1.3911
   96DG      O9 2194   5.243   1.026   3.547 -0.2420  0.9556  0.0318
   96DG     O10 2195   5.369   1.339   3.864  0.4933 -0.3203  0.2602
   96DG     C11 2196   5.257   0.927   3.649 -0.4549 -0.5134 -0.1549
   96DG     C12 2197   5.325   1.271   3.973 -0.1821  0.0758 -0.1091
   96DG     H13 2198   5.363   0.884   3.653  0.1230  1.2514 -0.4134
   96DG     H14 2199   5.195   0.838   3.614  0.3811  2.2507  0.9746
   96DG     H15 2200   5.277   1.331   4.043 -1.8478 -0.7659 -0.8617
   96DG     H16 2201   5.410   1.246   4.036 -0.3405 -4.1369  1.3978
   96DG     C17 2202   5.207   0.979   3.782 -0.7138  0.0274 -0.5955
   96DG     C18 2203   5.251   1.138   3.948 -0.5689 -0.1782 -0.4053
   96DG     O19 2204   5.280   1.092   3.818  0.4828  0.2494  0.5305
   96DG     H20 2205   5.210   0.901   3.862 -1.3810  0.1301 -2.0658
   96DG     H21 2206   5.103   1.011   3.768 -1.6143  3.3245  0.1272
   96DG     H22 2207   5.263   1.062   4.026 -2.2984 -0.5214 -0.4999
   96DG     H23 2208   5.144   1.161   3.947 -0.1354  0.3759 -0.4410
   97DG      C1 2209   0.760   3.459   4.120 -0.7231 -0.4337 -0.7140
   97DG      C2 2210   0.933   3.518   3.373  0.9349 -0.1459 -0.5856
   97DG      H3 2211   0.756   3.345   4.118 -1.3116 -2.2223  0.2999
   97DG      H4 2212   0.665   3.499   4.146  0.6094 -0.9895  0.6381
   97DG      H5 2213   0.832   3.503   4.186  2.2438  0.2694 -1.1975
   97DG      H6 2214   0.933   3.600   3.306 -2.6060 -0.1679  0.6563
   97DG      H7 2215   1.029   3.484   3.398 -2.3899 -0.6243 -2.4619
   97DG      H8 2216   0.883   3.434   3.329  0.8949 -1.3583 -0.2883
   97DG      O9 2217   0.778   3.491   3.984 -0.0061  0.7361  0.2742
   97DG     O10 2218   0.866   3.538   3.492 -0.2811 -0.1220 -0.1428
   97DG     C11 2219   0.683   3.444   3.890 -0.2018  0.1287  0.2816
   97DG     C12 2220   0.876   3.673   3.542  0.3361 -0.0237 -0.0457
   97DG     H13 2221   0.589   3.477   3.934 -1.7380  1.6965  0.6070
   97DG     H14 2222   0.696   3.336   3.890  2.0351  0.4848 -1.3440
   97DG     H15 2223   0.877   3.759   3.470 -0.1515  0.8901  2.6487
   97DG     H16 2224   0.968   3.693   3.598  1.0521  1.7552  1.0691
   97DG     C17 2225   0.715   3.486   3.746 -0.1384 -0.2130 -0.4448
   97DG     C18 2226   0.752   3.687   3.632 -0.2005  0.1540 -0.1312
   97DG     O19 2227   0.761   3.621   3.753 -0.3319 -0.6201  0.1672
   97DG     H20 2228   0.612   3.474   3.696  1.7568 -1.6814  2.7980
   97DG     H21 2229   0.784   3.422   3.691 -1.3342  0.7779 -1.6110
   97DG     H22 2230   0.738   3.786   3.665  0.4952 -2.1480 -0.8411
   97DG     H23 2231   0.652   3.663   3.581  0.2682  0.2083 -1.3256
   98DG      C1 2232   2.158   0.755   0.751  0.3139  0.7230  0.2828
   98DG      C2 2233   1.959   1.195   1.131  0.2548 -0.3168  0.2564
   98DG      H3 2234   2.057   0.790   0.698 -2.7239  0.8770  0.7406
   98DG      H4 2235   2.167   0.649   0.735  1.6483 -1.4867  0.0942
   98DG      H5 2236   2.239   0.808   0.698 -2.5750  0.6812 -2.6258
   98DG      H6 2237   1.907   1.240   1.213  0.3120  2.9743 -2.8255
   98DG      H7 2238   2.050   1.254   1.113  1.3956 -1.1500 -1.1342
   98DG      H8 2239   1.915   1.196   1.036  0.7128  2.2108  0.6463
   98DG      O9 2240   2.145   0.790   0.889  0.3354 -0.2056 -0.7335
   98DG     O10 2241   2.003   1.064   1.150 -0.5379  0.4868 -0.0015
   98DG     C11 2242   2.238   0.727   0.976 -0.8041  1.2967  0.3520
   98DG     C12 2243   2.100   1.048   1.254 -1.0123 -0.4368 -0.2548
   98DG     H13 2244   2.339   0.742   0.941  2.5715  1.4898  0.2414
   98DG     H14 2245   2.223   0.615   0.991  1.2549 -2.8331 -2.0439
   98DG     H15 2246   2.079   1.098   1.344  3.0297  0.7298 -0.3151
   98DG     H16 2247   2.196   1.102   1.231 -1.4873 -0.1756 -1.1452
   98DG     C17 2248   2.251   0.797   1.111  0.5270  0.3425  0.0292
   98DG     C18 2249   2.130   0.899   1.288 -0.4396  0.1561  0.1943
   98DG     O19 2250   2.124   0.825   1.160 -0.4100  0.2653 -0.6633
   98DG     H20 2251   2.312   0.895   1.102  0.3537 -0.6403  3.9463
   98DG     H21 2252   2.298   0.726   1.184  1.3426  1.4353  0.7731
   98DG     H22 2253   2.216   0.884   1.350 -2.0506 -0.6990  0.8119
   98DG     H23 2254   2.048   0.850   1.341  0.6503  2.8600  0.3132
   99DG      C1 2255   4.221   2.549   4.173 -0.0516 -0.1277  0.7352
   99DG      C2 2256   4.177   2.279   4.701 -0.6550 -0.1579 -0.3632
   99DG      H3 2257   4.317   2.507   4.157 -0.1699  3.0032 -3.7351
   99DG      H4 2258   4.217   2.604   4.262  1.1212  0.6778  0.0250
   99DG      H5 2259   4.206   2.609   4.080  0.5764  0.1949 -1.1622
   99DG      H6 2260   4.290   2.293   4.689  0.6382  1.3044  1.0136
   99DG      H7 2261   4.150   2.319   4.794 -0.3266 -2.0605 -2.9881
   99DG      H8 2262   4.167   2.170   4.715  1.2644  1.0825  3.0706
   99DG      O9 2263   4.134   2.436   4.185  0.4880 -0.2968 -0.4175
   99DG     O10 2264   4.109   2.321   4.578  0.0141  0.3962 -0.6843
   99DG     C11 2265   3.995   2.479   4.186 -0.5434  0.3052 -0.4020
   99DG     C12 2266   3.975   2.304   4.593 -0.4314  0.4823  0.2812
   99DG     H13 2267   3.964   2.519   4.088  0.2339  1.3690 -0.8757
   99DG     H14 2268   3.997   2.557   4.258  0.3400 -2.0850 -0.6239
   99DG     H15 2269   3.932   2.346   4.683 -0.9061 -0.8429 -2.5102
   99DG     H16 2270   3.944   2.202   4.611  2.0280  1.3986  0.9249
   99DG     C17 2271   3.896   2.375   4.230  0.4341 -0.3556 -0.5249
   99DG     C18 2272   3.895   2.360   4.472 -0.0703  0.0482 -0.6864
   99DG     O19 2273   3.939   2.298   4.348  0.0256  0.2716 -0.7276
   99DG     H20 2274   3.877   2.310   4.143  0.5469  1.7586  0.1597
   99DG     H21 2275   3.804   2.422   4.252  0.2818 -0.2645 -1.0833
   99DG     H22 2276   3.783   2.356   4.490 -1.8953  0.5112  1.4791
   99DG     H23 2277   3.923   2.466   4.478 -0.1964  0.2479  1.5783
  100DG      C1 2278   4.339   3.399   4.953 -0.3428  0.7484 -0.5678
  100DG      C2 2279   4.148   3.610   5.580 -0.8997 -0.7537  0.0066
  100DG      H3 2280   4.285   3.304   4.979 -1.1204  0.7143  0.7483
  100DG      H4 2281   4.429   3.369   4.896 -0.0404  1.1060  0.8898
  100DG      H5 2282   4.274   3.456   4.890 -0.6275 -0.8533  0.4029
  100DG      H6 2283   4.078   3.681   5.552  0.5941 -2.4809  0.6933
  100DG      H7 2284   4.087   3.524   5.601 -1.2692 -0.4908  1.5915
  100DG      H8 2285   4.182   3.644   5.678 -1.2364  1.6736  0.9750
  100DG      O9 2286   4.382   3.473   5.073 -0.4472  0.3611  0.4131
  100DG     O10 2287   4.258   3.604   5.484  0.7029 -0.1303  0.4480
  100DG     C11 2288   4.473   3.581   5.037 -0.2328 -0.5527 -0.5156
  100DG     C12 2289   4.332   3.729   5.470  0.3056 -0.9351  0.3110
  100DG     H13 2290   4.412   3.662   4.989  0.0901  1.4344  0.5734
  100DG     H14 2291   4.540   3.555   4.957  0.4251 -0.0748 -2.7654
  100DG     H15 2292   4.380   3.763   5.565 -3.3705  0.3059 -1.8818
  100DG     H16 2293   4.281   3.813   5.422  1.4084 -0.6872  0.9502
  100DG     C17 2294   4.523   3.633   5.174  0.6757  0.1008  0.1312
  100DG     C18 2295   4.451   3.706   5.381  0.8891  0.2309  0.5950
  100DG     O19 2296   4.405   3.672   5.252  0.4177  0.0100  0.2063
  100DG     H20 2297   4.576   3.727   5.164  2.4101  3.3522  2.4095
  100DG     H21 2298   4.585   3.558   5.222  1.2064 -3.9047 -0.2539
  100DG     H22 2299   4.506   3.802   5.394  1.6278 -0.1282 -1.4649
  100DG     H23 2300   4.516   3.629   5.425 -1.5155 -0.9366  0.5615
  101DG      C1 2301   1.429   0.004   2.986 -0.4187 -0.0309  0.4309
  101DG      C2 2302   1.607  -0.301   3.503  0.0987 -0.8531  0.3770
  101DG      H3 2303   1.369  -0.077   2.951  0.3293  0.7025 -0.4365
  101DG      H4 2304   1.535  -0.004   2.958  3.6844 -1.1910  0.0542
  101DG      H5 2305   1.402   0.104   2.937 -0.6234  3.0943 -1.8667
  101DG      H6 2306   1.566  -0.401   3.481 -3.2012 -1.1584 -0.6718
  101DG      H7 2307   1.699  -0.298   3.452 -0.9394  0.9411 -2.1655
  101DG      H8 2308   1.635  -0.289   3.609  1.6277  0.0923  3.2699
  101DG      O9 2309   1.416   0.007   3.126  0.0172  0.1060  0.4758
  101DG     O10 2310   1.512  -0.200   3.469  0.0774  0.6942  0.0185
  101DG     C11 2311   1.285   0.024   3.169  0.8818  0.4339 -0.3344
  101DG     C12 2312   1.399  -0.185   3.551 -0.0460  0.5676  0.8318
  101DG     H13 2313   1.227  -0.070   3.163  2.4569  0.8429 -0.8129
  101DG     H14 2314   1.223   0.103   3.112 -1.0711  2.9473 -1.4619
  101DG     H15 2315   1.423  -0.193   3.654  2.7282  0.6408 -1.2148
  101DG     H16 2316   1.322  -0.255   3.526  1.8550 -0.0266 -3.0893
  101DG     C17 2317   1.274   0.057   3.316  0.1220 -0.4763  0.3595
  101DG     C18 2318   1.342  -0.046   3.523 -0.4120 -0.0270 -0.0437
  101DG     O19 2319   1.343  -0.047   3.382  0.2139 -0.7716 -0.5665
  101DG     H20 2320   1.173   0.069   3.359  1.5874 -1.5044 -0.1912
  101DG     H21 2321   1.322   0.148   3.326 -0.9118 -2.7284  0.0394
  101DG     H22 2322   1.239  -0.048   3.549  0.4945 -0.5642  0.3038
  101DG     H23 2323   1.393   0.039   3.564  0.0040  2.7170  1.9251
  102DG      C1 2324   1.413   2.579   2.621 -0.3481 -0.0254 -0.1748
  102DG      C2 2325   1.811   2.340   2.382 -0.1825  0.4421 -0.5465
  102DG      H3 2326   1.380   2.663   2.560 -0.9313  1.8307 -0.7778
  102DG      H4 2327   1.511   2.559   2.589  0.2297  2.2411  0.5410
  102DG      H5 2328   1.421   2.622   2.724 -0.7379 -0.9645 -0.4417
  102DG      H6 2329   1.767   2.277   2.313 -1.2095  1.2201  2.2550
  102DG      H7 2330   1.820   2.435   2.332 -1.4609 -0.2275 -0.6628
  102DG      H8 2331   1.913   2.300   2.407  2.5352 -1.6923 -1.8176
  102DG      O9 2332   1.337   2.457   2.611  0.2402  0.4009  0.4089
  102DG     O10 2333   1.727   2.337   2.497  0.3539 -0.4377  0.1528
  102DG     C11 2334   1.323   2.375   2.730 -0.2120  0.5232  0.2478
  102DG     C12 2335   1.725   2.209   2.561 -0.5716 -0.2039  0.1907
  102DG     H13 2336   1.263   2.293   2.698 -0.4102  0.8045  1.5652
  102DG     H14 2337   1.265   2.420   2.814 -1.7866 -1.3390  1.1467
  102DG     H15 2338   1.824   2.172   2.591 -0.2102  0.1958  0.3120
  102DG     H16 2339   1.683   2.138   2.498  0.5358  0.9199 -0.5866
  102DG     C17 2340   1.460   2.328   2.780  0.4082  0.7327 -0.0500
  102DG     C18 2341   1.652   2.221   2.697  0.5715  0.0497 -0.7039
  102DG     O19 2342   1.519   2.265   2.666  0.6478  1.0467  0.5779
  102DG     H20 2343   1.450   2.257   2.862 -1.6209 -2.0381 -1.7493
  102DG     H21 2344   1.526   2.407   2.815 -0.3294 -1.5666 -0.1936
  102DG     H22 2345   1.637   2.123   2.735 -3.0973 -1.5181 -0.0031
  102DG     H23 2346   1.705   2.295   2.763 -1.2713 -0.4264 -0.0777
  103DG      C1 2347   0.616   0.705   3.503  0.3857 -0.1604 -0.2613
  103DG      C2 2348   0.124   0.247   3.684 -0.3033  0.1680 -0.4399
  103DG      H3 2349   0.689   0.625   3.499 -0.7234 -0.2541  0.9309
  103DG      H4 2350   0.653   0.784   3.571 -0.6642  0.7275  1.0159
  103DG      H5 2351   0.624   0.757   3.409  0.3956 -0.6014 -2.1209
  103DG      H6 2352   0.033   0.211   3.727  0.2272 -1.5888 -1.3326
  103DG      H7 2353   0.164   0.163   3.620  2.0976 -0.5495 -0.2964
  103DG      H8 2354   0.205   0.257   3.758 -0.0315 -2.9776 -0.5606
  103DG      O9 2355   0.485   0.669   3.534 -0.4542 -0.7063 -0.2776
  103DG     O10 2356   0.111   0.381   3.619  0.0924  0.2533  0.2795
  103DG     C11 2357   0.388   0.770   3.512 -0.2843 -0.6411  0.0505
  103DG     C12 2358   0.061   0.482   3.709 -0.5925 -0.3337  0.6889
  103DG     H13 2359   0.391   0.791   3.408 -1.4402 -0.7540  1.1467
  103DG     H14 2360   0.428   0.869   3.541  0.1830  0.5833  1.3248
  103DG     H15 2361   0.124   0.484   3.796  0.2329 -1.3621 -1.8876
  103DG     H16 2362  -0.038   0.464   3.749 -1.1495  0.4906  1.2393
  103DG     C17 2363   0.263   0.753   3.596  0.6145 -0.1127  0.8512
  103DG     C18 2364   0.069   0.626   3.645  0.5052 -0.0259  0.5221
  103DG     O19 2365   0.202   0.627   3.599  0.4363  0.5339 -0.5875
  103DG     H20 2366   0.189   0.824   3.571 -0.7705 -0.3115 -0.9211
  103DG     H21 2367   0.288   0.768   3.697 -0.7664  1.8536  1.6001
  103DG     H22 2368   0.007   0.645   3.558  0.4582 -3.3990  0.8476
  103DG     H23 2369   0.044   0.700   3.724 -0.2472  1.9437  0.5142
  104DG      C1 2370   0.213   4.091   0.120 -0.0128  0.7242  0.3408
  104DG      C2 2371  -0.461   3.974   0.147 -0.4263 -0.0366 -0.0634
  104DG      H3 2372   0.316   4.109   0.157 -0.2517  2.4716  1.0573
  104DG      H4 2373   0.175   4.192   0.095  1.4949 -0.2085  0.0917
  104DG      H5 2374   0.220   4.031   0.033  1.8966 -1.4347  1.7220
  104DG      H6 2375  -0.542   3.929   0.212 -0.0535 -0.9370  0.7616
  104DG      H7 2376  -0.501   4.080   0.137  0.1213  3.6673  0.8499
  104DG      H8 2377  -0.446   3.935   0.051 -1.1225  1.7748  0.0401
  104DG      O9 2378   0.118   4.051   0.224 -0.4620  0.4684  0.0247
  104DG     O10 2379  -0.350   3.964   0.234 -0.2979 -0.2633 -0.3250
  104DG     C11 2380   0.154   3.920   0.272 -0.3385 -0.2670  0.0338
  104DG     C12 2381  -0.327   3.827   0.270  0.4789 -0.3486  0.6720
  104DG     H13 2382   0.243   3.932   0.341 -0.6379  0.0623  1.8449
  104DG     H14 2383   0.191   3.859   0.192  1.9645  1.5845 -1.0566
  104DG     H15 2384  -0.330   3.766   0.173 -2.5326 -0.2452 -2.0165
  104DG     H16 2385  -0.402   3.772   0.328  2.1964 -1.6051 -1.5648
  104DG     C17 2386   0.043   3.839   0.341  0.4995 -0.1763  0.2170
  104DG     C18 2387  -0.189   3.809   0.345 -0.1413 -0.4955  0.1369
  104DG     O19 2388  -0.074   3.848   0.266  0.7877  0.1392  0.0379
  104DG     H20 2389   0.042   3.892   0.443  0.7100 -2.3432  1.7496
  104DG     H21 2390   0.072   3.738   0.367  1.1230 -0.2523  0.0646
  104DG     H22 2391  -0.200   3.872   0.432 -0.8720  0.3549  0.2686
  104DG     H23 2392  -0.181   3.712   0.393 -2.1659 -1.7195 -0.3657
  105DG      C1 2393   1.943   4.879   0.460 -0.0805  0.4930 -0.0686
  105DG      C2 2394   1.465   5.275  -0.077 -0.8039 -0.3938 -0.2638
  105DG      H3 2395   1.970   4.801   0.533 -3.3519 -0.7189 -1.1328
  105DG      H4 2396   1.908   4.965   0.518 -0.9557 -2.0704 -0.4226
  105DG      H5 2397   2.027   4.909   0.400 -2.3902  2.5854 -3.3653
  105DG      H6 2398   1.427   5.192  -0.147 -0.3160 -2.3027 -0.2727
  105DG      H7 2399   1.383   5.350  -0.056 -0.2315 -0.1678 -1.4997
  105DG      H8 2400   1.565   5.316  -0.120  1.0335  1.0512  1.9368
  105DG      O9 2401   1.836   4.817   0.383  0.3016  0.0459 -0.0758
  105DG     O10 2402   1.491   5.243   0.062 -0.1335  0.1678 -0.1886
  105DG     C11 2403   1.777   4.896   0.285  0.4777 -0.9202  0.2303
  105DG     C12 2404   1.401   5.147   0.111 -0.0895 -0.5169  0.4864
  105DG     H13 2405   1.763   4.828   0.198 -0.4465 -0.2195  2.5036
  105DG     H14 2406   1.848   4.974   0.251  5.3065  1.3555  0.8551
  105DG     H15 2407   1.369   5.057   0.050 -1.9489 -1.0311  1.1444
  105DG     H16 2408   1.312   5.206   0.136 -1.3757  0.4157 -0.8204
  105DG     C17 2409   1.646   4.962   0.321  0.5513  0.3688 -0.2239
  105DG     C18 2410   1.464   5.090   0.242  0.4313 -0.0576 -0.4347
  105DG     O19 2411   1.582   5.010   0.205  0.7368 -0.0145  0.1928
  105DG     H20 2412   1.663   5.046   0.392 -0.0872 -0.0130 -0.4788
  105DG     H21 2413   1.585   4.891   0.373 -0.1127  1.9852 -2.0724
  105DG     H22 2414   1.481   5.170   0.314  2.3620  0.7839  2.6284
  105DG     H23 2415   1.389   5.015   0.281 -2.1341 -1.1486  0.3826
  106DG      C1 2416   4.903   0.656   1.347 -0.5227  0.1276 -0.2190
  106DG      C2 2417   4.954   0.045   1.534 -1.1788  0.0890  0.2246
  106DG      H3 2418   4.855   0.749   1.324  1.2464  0.3151  0.7027
  106DG      H4 2419   4.876   0.577   1.270  2.2356 -2.0667 -0.7352
  106DG      H5 2420   5.011   0.676   1.340  0.8379  1.1786  5.2551
  106DG      H6 2421   5.058   0.047   1.548 -0.7851 -3.0949 -1.2215
  106DG      H7 2422   4.911  -0.048   1.567 -1.5366 -2.8156  0.5147
  106DG      H8 2423   4.932   0.042   1.429  3.0352 -1.6145 -3.3098
  106DG      O9 2424   4.864   0.608   1.481 -0.3698 -0.0803  0.1800
  106DG     O10 2425   4.883   0.158   1.593  0.2131  0.2054  0.0077
  106DG     C11 2426   4.720   0.602   1.492 -0.6854 -0.0188  0.0943
  106DG     C12 2427   4.741   0.138   1.587 -0.2097 -0.1827 -1.0142
  106DG     H13 2428   4.678   0.574   1.396 -1.2765 -0.1712  2.3388
  106DG     H14 2429   4.686   0.713   1.510 -0.1526  1.5243 -0.0705
  106DG     H15 2430   4.710   0.056   1.652  0.8611  3.0753 -0.0127
  106DG     H16 2431   4.714   0.137   1.482  0.4368 -0.0030  1.1281
  106DG     C17 2432   4.664   0.507   1.598 -0.4823 -0.0257  0.0808
  106DG     C18 2433   4.679   0.271   1.648 -0.7411  0.4788 -0.3133
  106DG     O19 2434   4.722   0.382   1.572 -0.5870  0.4935 -0.4003
  106DG     H20 2435   4.555   0.510   1.606 -0.9449 -0.3456  1.2519
  106DG     H21 2436   4.715   0.532   1.699  1.8383  0.9221  1.2102
  106DG     H22 2437   4.570   0.257   1.645  1.0785 -0.0123 -1.5485
  106DG     H23 2438   4.712   0.288   1.750  1.4391 -0.1854 -0.5247
  107DG      C1 2439   3.762   4.039   2.264  0.6582  0.5682  0.4821
  107DG      C2 2440   4.386   3.814   2.100  0.1099  0.0668 -0.0687
  107DG      H3 2441   3.797   4.062   2.167  0.3967 -0.7007 -1.9878
  107DG      H4 2442   3.752   4.131   2.318 -1.3034 -3.2202 -0.1033
  107DG      H5 2443   3.665   3.993   2.248  0.5677  0.1718  0.9656
  107DG      H6 2444   4.420   3.897   2.036  2.9192  1.2022  1.4310
  107DG      H7 2445   4.465   3.743   2.123 -0.8249  0.5027 -1.5822
  107DG      H8 2446   4.308   3.762   2.040 -1.5579  1.1341 -2.3655
  107DG      O9 2447   3.867   3.956   2.314 -0.3351 -0.0812 -0.3693
  107DG     O10 2448   4.330   3.875   2.216 -0.1383 -0.2716 -0.0397
  107DG     C11 2449   3.839   3.914   2.450  0.5546 -0.3788  0.7362
  107DG     C12 2450   4.223   3.790   2.269  0.1584  0.2637 -0.3505
  107DG     H13 2451   3.777   3.828   2.436  1.6505 -0.3258 -3.1936
  107DG     H14 2452   3.777   3.987   2.506 -1.6694 -0.3876 -0.8315
  107DG     H15 2453   4.260   3.697   2.296 -0.5960  0.4338 -0.9159
  107DG     H16 2454   4.146   3.771   2.201  0.4583  2.1889 -1.7306
  107DG     C17 2455   3.970   3.881   2.522 -0.1638 -0.3309 -0.0411
  107DG     C18 2456   4.174   3.865   2.400 -0.8227  0.3115 -0.5067
  107DG     O19 2457   4.054   3.799   2.437  0.4656  0.3914  0.0911
  107DG     H20 2458   3.930   3.816   2.600 -2.1189  2.5941  0.6048
  107DG     H21 2459   4.014   3.969   2.566  1.5843 -0.0127 -0.0222
  107DG     H22 2460   4.258   3.869   2.473 -1.6717 -1.0675 -1.4888
  107DG     H23 2461   4.139   3.968   2.383 -1.0476  0.5967 -1.2947
  108DG      C1 2462   5.064   3.958   3.499 -0.3633 -0.6960 -0.3149
  108DG      C2 2463   4.537   3.537   3.071 -0.0726 -0.2865 -0.0960
  108DG      H3 2464   5.085   3.962   3.606 -0.1726  0.4960 -1.1015
  108DG      H4 2465   4.972   4.016   3.486  0.9382 -1.0265 -1.1454
  108DG      H5 2466   5.147   4.005   3.439 -2.5065 -0.1708 -0.1177
  108DG      H6 2467   4.493   3.431   3.071  1.8861 -1.1282  0.9561
  108DG      H7 2468   4.452   3.613   3.105 -0.1764  2.5294 -0.2755
  108DG      H8 2469   4.554   3.556   2.968  2.2823  1.7837  2.5776
  108DG      O9 2470   5.037   3.826   3.463  0.0943  0.1521 -0.5935
  108DG     O10 2471   4.651   3.546   3.152 -0.4247  0.4676 -0.5985
  108DG     C11 2472   5.012   3.804   3.327 -0.3772 -0.4808  0.1995
  108DG     C12 2473   4.751   3.450   3.131  0.5804  0.2242  0.0711
  108DG     H13 2474   5.080   3.852   3.254  2.1749 -0.6776 -0.8473
  108DG     H14 2475   4.921   3.853   3.287 -1.0615 -5.0563 -0.3594
  108DG     H15 2476   4.781   3.453   3.027 -1.3620 -3.1894 -0.0646
  108DG     H16 2477   4.711   3.355   3.150 -0.9800  1.7959  0.8531
  108DG     C17 2478   5.006   3.653   3.312  0.0316  0.0895 -0.0905
  108DG     C18 2479   4.866   3.483   3.228 -0.2240  0.7588  0.4228
  108DG     O19 2480   4.896   3.621   3.226  0.0411  0.2841  0.1217
  108DG     H20 2481   4.990   3.611   3.408  0.4892  0.6786  0.9588
  108DG     H21 2482   5.104   3.615   3.269  0.3791 -2.2331  0.0483
  108DG     H22 2483   4.857   3.443   3.333 -0.6775 -1.1985  0.7291
  108DG     H23 2484   4.958   3.437   3.188  1.9759  0.9618 -0.4012
  109DG      C1 2485   2.287   0.557   4.055  0.8045  0.2205 -0.1562
  109DG      C2 2486   2.706   1.043   3.934 -0.5435  0.0508 -0.6009
  109DG      H3 2487   2.285   0.460   4.009  1.1692 -0.0813  0.4733
  109DG      H4 2488   2.175   0.589   4.073 -0.5415  0.1873  1.3583
  109DG      H5 2489   2.332   0.551   4.153  1.1834  2.4138 -1.4777
  109DG      H6 2490   2.674   1.056   4.033  0.0393 -2.8742  1.9271
  109DG      H7 2491   2.813   1.015   3.928  0.7394  2.1273 -3.8818
  109DG      H8 2492   2.698   1.137   3.881  1.9471  1.1917 -1.7108
  109DG      O9 2493   2.358   0.648   3.979 -0.0396 -0.2968  0.5073
  109DG     O10 2494   2.625   0.945   3.877 -0.5295  0.0666  0.0492
  109DG     C11 2495   2.302   0.663   3.853 -0.4264  1.0108  0.6879
  109DG     C12 2496   2.663   0.920   3.740 -0.1067 -0.1758 -0.5217
  109DG     H13 2497   2.195   0.683   3.844 -1.2096  0.5892 -0.7103
  109DG     H14 2498   2.316   0.560   3.802 -1.2767 -0.9631 -1.8823
  109DG     H15 2499   2.774   0.898   3.735 -0.6852  0.9773  0.1726
  109DG     H16 2500   2.642   0.998   3.672 -0.4255  1.9448  0.2336
  109DG     C17 2501   2.382   0.767   3.779  0.3993 -0.0254  0.6242
  109DG     C18 2502   2.596   0.796   3.678  0.2527  0.3550  0.1850
  109DG     O19 2503   2.516   0.724   3.769 -0.1380 -0.1955  0.1390
  109DG     H20 2504   2.380   0.864   3.827 -2.0154 -0.2532  1.3768
  109DG     H21 2505   2.338   0.771   3.682 -1.1060 -1.3287 -0.2515
  109DG     H22 2506   2.536   0.823   3.593 -0.9263 -2.6528  2.1577
  109DG     H23 2507   2.673   0.727   3.649  1.2218  2.2194  1.9781
  110DG      C1 2508   4.276   4.966   3.997  0.0636  0.3096  0.6425
  110DG      C2 2509   3.939   5.603   4.163 -0.4231 -0.2272 -0.0346
  110DG      H3 2510   4.351   4.981   4.080  1.0723  0.7100 -0.6447
  110DG      H4 2511   4.334   5.011   3.914  0.2534 -0.7569 -0.0707
  110DG      H5 2512   4.256   4.858   3.980  2.8280 -0.5894 -0.6757
  110DG      H6 2513   3.978   5.597   4.266  0.0029 -1.7945 -0.1934
  110DG      H7 2514   4.004   5.667   4.099  1.1728 -0.3499  1.3007
  110DG      H8 2515   3.840   5.643   4.169 -0.2969  1.6685 -0.7995
  110DG      O9 2516   4.163   5.054   4.017 -0.3130 -0.3453  0.4770
  110DG     O10 2517   3.946   5.472   4.116  0.1389 -0.6916  0.2244
  110DG     C11 2518   4.087   5.037   3.894 -1.2638  0.3076 -0.4728
  110DG     C12 2519   3.885   5.471   3.996  0.4358 -0.3490  0.7314
  110DG     H13 2520   4.054   4.941   3.869  1.6172  0.5023 -1.2888
  110DG     H14 2521   4.146   5.082   3.809  1.1583  1.5908 -0.8843
  110DG     H15 2522   3.938   5.531   3.925 -0.6118  1.7670  0.7283
  110DG     H16 2523   3.788   5.525   4.004 -1.4072 -1.3840  2.0589
  110DG     C17 2524   3.964   5.120   3.910  0.0529  0.0907  0.1473
  110DG     C18 2525   3.862   5.333   3.939  0.1268  0.0398  0.5768
  110DG     O19 2526   3.981   5.251   3.954 -0.1445 -0.2060 -0.2052
  110DG     H20 2527   3.887   5.076   3.971  0.3234 -0.0041  0.4914
  110DG     H21 2528   3.922   5.124   3.809 -0.1810  0.3720 -2.4685
  110DG     H22 2529   3.772   5.292   3.992 -0.0304 -1.8372  2.1872
  110DG     H23 2530   3.831   5.344   3.835  2.3995  0.0702 -0.1507
  111DG      C1 2531   0.972   3.879   0.412 -0.1471  0.0465 -0.3315
  111DG      C2 2532   0.471   4.160   0.718 -0.0082 -0.1212 -0.3265
  111DG      H3 2533   0.977   3.890   0.300 -0.1844 -1.0240 -1.1112
  111DG      H4 2534   1.025   3.791   0.447  0.1080 -1.9554  4.5494
  111DG      H5 2535   1.021   3.971   0.451 -0.2876  0.1308  5.2491
  111DG      H6 2536   0.449   4.253   0.665 -2.8220  0.3686  0.5064
  111DG      H7 2537   0.377   4.135   0.761  0.9853  3.1644  1.2818
  111DG      H8 2538   0.529   4.182   0.810 -3.0836  0.3181 -0.2016
  111DG      O9 2539   0.837   3.881   0.440 -0.2116  0.1801 -0.7907
  111DG     O10 2540   0.529   4.043   0.656  0.1899 -0.2266  0.5341
  111DG     C11 2541   0.764   3.760   0.417 -0.5153 -0.9156  0.2715
  111DG     C12 2542   0.425   3.965   0.593  0.7104 -0.0720 -0.0378
  111DG     H13 2543   0.743   3.715   0.511  0.8320  1.9782  1.3142
  111DG     H14 2544   0.819   3.697   0.349  0.4478  2.5576 -1.1574
  111DG     H15 2545   0.368   4.031   0.529 -1.0086  0.3406  0.3601
  111DG     H16 2546   0.370   3.921   0.673  0.9508 -2.0780 -1.7371
  111DG     C17 2547   0.637   3.798   0.346  0.3492  0.7082 -0.3323
  111DG     C18 2548   0.472   3.858   0.506 -0.0181 -0.0402  1.0234
  111DG     O19 2549   0.573   3.902   0.420  0.5513  0.2756 -0.0202
  111DG     H20 2550   0.575   3.707   0.330  0.8576 -0.7214  0.5983
  111DG     H21 2551   0.675   3.838   0.260 -0.2581 -0.8793  1.3270
  111DG     H22 2552   0.507   3.772   0.562  3.3387  1.9169 -0.7319
  111DG     H23 2553   0.384   3.818   0.451 -2.2757  1.9622  2.3051
  112DG      C1 2554   2.994   3.126   0.729 -0.0974 -0.1913  0.1873
  112DG      C2 2555   3.264   3.728   0.947 -0.3405  1.0191 -0.8335
  112DG      H3 2556   3.003   3.019   0.725  1.6457  0.4199 -0.4146
  112DG      H4 2557   2.918   3.150   0.665 -0.3656 -1.1485 -0.8626
  112DG      H5 2558   2.959   3.144   0.826  0.0239 -2.2258 -1.2365
  112DG      H6 2559   3.357   3.772   0.989  0.4149  1.0330  1.3530
  112DG      H7 2560   3.210   3.798   0.896 -0.2227  1.0866 -0.4620
  112DG      H8 2561   3.214   3.696   1.041  0.5487 -1.9215 -0.9748
  112DG      O9 2562   3.122   3.180   0.697 -0.2542  0.7057 -0.3324
  112DG     O10 2563   3.310   3.629   0.851  0.4354  0.0236  0.8511
  112DG     C11 2564   3.118   3.318   0.677  0.1465 -0.2518 -0.0781
  112DG     C12 2565   3.401   3.539   0.906  0.6688 -0.4378  0.1782
  112DG     H13 2566   3.062   3.375   0.754 -0.3338  2.4335 -0.6018
  112DG     H14 2567   3.068   3.338   0.578  0.8236 -0.0679 -0.9458
  112DG     H15 2568   3.347   3.492   0.996 -1.4463  1.4739  0.9925
  112DG     H16 2569   3.491   3.585   0.943 -0.8475 -0.9902 -1.6461
  112DG     C17 2570   3.257   3.385   0.655 -0.9564 -0.2125  0.4286
  112DG     C18 2571   3.441   3.443   0.796  0.1721  0.0101  0.0359
  112DG     O19 2572   3.330   3.350   0.780 -0.7735 -0.4044  0.4884
  112DG     H20 2573   3.243   3.495   0.643 -2.4292  2.8089  0.5522
  112DG     H21 2574   3.321   3.342   0.578  0.7023  1.3575 -0.6574
  112DG     H22 2575   3.483   3.473   0.701  0.4160 -0.0726 -0.6611
  112DG     H23 2576   3.524   3.387   0.836  1.0010 -2.4083 -3.0760
  113DG      C1 2577   2.040   1.963   2.732 -0.3922  0.4711 -0.6275
  113DG      C2 2578   2.659   2.028   2.814  0.0141 -0.0100  0.7328
  113DG      H3 2579   1.939   1.928   2.736  0.5098 -1.5266  0.2233
  113DG      H4 2580   2.050   2.017   2.642 -3.7564 -4.1269  1.4897
  113DG      H5 2581   2.048   2.041   2.807  0.3189 -0.1869  0.1215
  113DG      H6 2582   2.736   2.062   2.752  0.5921 -0.1186  1.1130
  113DG      H7 2583   2.648   2.112   2.881 -1.0244  0.9093  1.1433
  113DG      H8 2584   2.693   1.937   2.880 -1.1157 -1.5844  1.2179
  113DG      O9 2585   2.141   1.860   2.745 -0.2609 -0.3809 -0.6321
  113DG     O10 2586   2.532   2.007   2.753 -0.1073 -0.4305  0.3360
  113DG     C11 2587   2.144   1.755   2.638  0.2220  0.2236  0.4248
  113DG     C12 2588   2.551   1.919   2.643 -0.0381  0.6480 -0.4185
  113DG     H13 2589   2.148   1.817   2.543 -0.1074  1.2442  0.0652
  113DG     H14 2590   2.058   1.690   2.641 -1.5499 -1.6527  0.6164
  113DG     H15 2591   2.604   1.827   2.672 -0.4943 -2.9479 -1.3883
  113DG     H16 2592   2.598   1.965   2.567  2.6030 -3.2033 -1.0003
  113DG     C17 2593   2.273   1.675   2.634  0.1615  0.6834 -0.0130
  113DG     C18 2594   2.416   1.855   2.599  0.1133 -0.3443 -0.1869
  113DG     O19 2595   2.384   1.748   2.684  0.2414  0.1067  0.2403
  113DG     H20 2596   2.296   1.631   2.539  0.0002 -0.6877  1.5618
  113DG     H21 2597   2.246   1.588   2.692  1.2432  0.3600  0.2834
  113DG     H22 2598   2.332   1.934   2.594  1.8978  0.1605  1.8867
  113DG     H23 2599   2.433   1.824   2.498  3.6928 -0.0250 -0.0312
  114DG      C1 2600   0.732   2.546   4.100  0.7706 -0.3950 -0.3294
  114DG      C2 2601   1.317   2.798   3.983 -0.3037  0.0483  0.7625
  114DG      H3 2602   0.780   2.511   4.184 -2.1717  0.7608 -0.1551
  114DG      H4 2603   0.677   2.453   4.075  0.6377  1.0121 -1.8564
  114DG      H5 2604   0.659   2.621   4.130 -0.1799 -0.7323  0.5118
  114DG      H6 2605   1.392   2.836   3.906 -1.1455 -2.0082  2.0927
  114DG      H7 2606   1.277   2.890   4.032  0.5306 -0.7244  3.1758
  114DG      H8 2607   1.364   2.722   4.049 -1.2426  0.8532 -0.2766
  114DG      O9 2608   0.815   2.587   4.002  0.0197  0.1105  0.4699
  114DG     O10 2609   1.215   2.730   3.922 -0.1801  0.0748  0.1252
  114DG     C11 2610   0.787   2.518   3.875 -0.0233  0.1547  0.1091
  114DG     C12 2611   1.227   2.703   3.783 -0.4560 -0.7701  0.0398
  114DG     H13 2612   0.683   2.518   3.847 -1.0018  1.2637  0.2971
  114DG     H14 2613   0.826   2.416   3.881  1.3086 -0.0331  2.8131
  114DG     H15 2614   1.271   2.603   3.790 -2.3980  2.0256 -2.1120
  114DG     H16 2615   1.286   2.775   3.722 -1.3692 -0.0289  0.9440
  114DG     C17 2616   0.873   2.582   3.763 -0.0615 -0.2718  0.1033
  114DG     C18 2617   1.092   2.672   3.713 -0.0785  0.0212 -0.1410
  114DG     O19 2618   1.009   2.593   3.800  0.2662 -0.5566 -0.7003
  114DG     H20 2619   0.834   2.683   3.733  0.2052  2.0998  0.1602
  114DG     H21 2620   0.865   2.523   3.674  0.3095  0.1959  0.3823
  114DG     H22 2621   1.029   2.762   3.696 -1.5442  3.7437  1.6593
  114DG     H23 2622   1.102   2.623   3.612 -1.7345 -0.0356 -0.8132
  115DG      C1 2623   0.225   4.293   4.325  0.5597  0.1019  0.2489
  115DG      C2 2624  -0.011   4.608   3.829  0.5578  0.0526 -0.1712
  115DG      H3 2625   0.284   4.349   4.395 -0.6920 -3.0912 -0.1956
  115DG      H4 2626   0.290   4.277   4.235 -0.7417  2.6805  0.3234
  115DG      H5 2627   0.208   4.196   4.376  1.7524 -0.6169  0.3641
  115DG      H6 2628   0.088   4.661   3.819  0.7299  1.4788  0.5865
  115DG      H7 2629  -0.001   4.521   3.765  0.4248  2.0251 -1.5443
  115DG      H8 2630  -0.078   4.681   3.783  0.3517  2.4095  1.4826
  115DG      O9 2631   0.106   4.371   4.305 -0.6308 -0.0769  0.5482
  115DG     O10 2632  -0.056   4.577   3.964  0.2549 -0.2669  0.0605
  115DG     C11 2633  -0.005   4.328   4.374  0.0950 -0.0094 -0.0775
  115DG     C12 2634  -0.182   4.503   3.966  0.6852  0.5718  1.5659
  115DG     H13 2635  -0.002   4.326   4.482  1.3207  0.0308 -2.7980
  115DG     H14 2636  -0.031   4.224   4.342 -0.2061 -1.6642  2.8658
  115DG     H15 2637  -0.170   4.404   3.920  1.2551 -0.4098 -2.4124
  115DG     H16 2638  -0.261   4.556   3.912 -0.3948  1.0186 -0.5401
  115DG     C17 2639  -0.118   4.418   4.314 -0.9589 -0.1937 -0.3049
  115DG     C18 2640  -0.210   4.492   4.111  0.1041 -0.3678 -0.0070
  115DG     O19 2641  -0.114   4.400   4.172  0.2986  0.2789 -0.1659
  115DG     H20 2642  -0.112   4.522   4.341 -1.4838  0.0570  2.0586
  115DG     H21 2643  -0.209   4.386   4.353 -2.3987 -2.2669 -2.3032
  115DG     H22 2644  -0.212   4.585   4.153  2.3709  0.3460  0.4484
  115DG     H23 2645  -0.310   4.450   4.119  1.0166 -1.2021 -1.7176
  116DG      C1 2646   3.864   4.567   2.937  0.7991  0.1390  0.3963
  116DG      C2 2647   3.167   4.443   2.828 -1.2571  0.3798  0.1459
  116DG      H3 2648   3.960   4.613   2.900 -1.5479  2.2156  0.4424
  116DG      H4 2649   3.873   4.462   2.896  0.0558  3.3321 -1.0266
  116DG      H5 2650   3.874   4.564   3.051 -0.7502 -0.3627  0.5599
  116DG      H6 2651   3.119   4.394   2.752  2.9534 -1.5795  2.3812
  116DG      H7 2652   3.180   4.372   2.918  0.7076 -0.3095  0.4085
  116DG      H8 2653   3.105   4.522   2.857  1.9569  2.0337 -2.4899
  116DG      O9 2654   3.758   4.643   2.898  0.6303  0.0009 -0.7240
  116DG     O10 2655   3.297   4.485   2.787  0.4715 -0.8840  0.0091
  116DG     C11 2656   3.744   4.644   2.758 -0.3678  0.6701 -0.1313
  116DG     C12 2657   3.298   4.559   2.666 -0.1480 -0.2639 -0.4797
  116DG     H13 2658   3.719   4.542   2.727  1.0397  3.3828  0.2320
  116DG     H14 2659   3.841   4.674   2.707  1.6531  0.7617  1.1711
  116DG     H15 2660   3.250   4.655   2.682 -1.2218 -2.1281  1.4751
  116DG     H16 2661   3.244   4.511   2.579  0.3790  1.3350 -1.5784
  116DG     C17 2662   3.629   4.733   2.702 -0.0519 -0.2991 -0.3658
  116DG     C18 2663   3.438   4.598   2.615  0.7769  0.0565  0.0446
  116DG     O19 2664   3.499   4.676   2.718  0.3354  0.0485 -0.1407
  116DG     H20 2665   3.637   4.759   2.600 -0.0576  0.7883  1.4929
  116DG     H21 2666   3.635   4.838   2.747  0.4434 -0.4037  0.6166
  116DG     H22 2667   3.499   4.499   2.596  2.1460 -1.6159  1.0762
  116DG     H23 2668   3.426   4.655   2.526  1.3681 -1.6707  1.9794
  117DG      C1 2669   2.567   1.141   4.436 -0.1959 -0.4179  1.3706
  117DG      C2 2670   2.035   1.497   4.482 -0.2071 -0.2702  0.1334
  117DG      H3 2671   2.555   1.085   4.528 -0.1605  0.8517 -0.8446
  117DG      H4 2672   2.674   1.171   4.424  1.8277 -1.3278  0.8932
  117DG      H5 2673   2.555   1.072   4.354  0.3640  1.6250 -0.2520
  117DG      H6 2674   2.010   1.593   4.505  1.9638  0.0872  0.7725
  117DG      H7 2675   1.978   1.419   4.533  2.2820 -0.7457  2.1833
  117DG      H8 2676   2.137   1.483   4.511  0.2380  0.7962  1.1553
  117DG      O9 2677   2.489   1.254   4.424  0.9438 -0.0146  0.0709
  117DG     O10 2678   2.024   1.475   4.339  0.0496  0.2655 -0.2777
  117DG     C11 2679   2.521   1.354   4.331  0.1760  0.1722  0.2784
  117DG     C12 2680   2.103   1.568   4.267 -0.0074  0.0609  0.0881
  117DG     H13 2681   2.506   1.307   4.239  0.0873 -1.1667  3.5294
  117DG     H14 2682   2.626   1.365   4.327  0.9046 -0.0280 -1.1191
  117DG     H15 2683   2.065   1.670   4.281  1.1858  0.6602  0.7298
  117DG     H16 2684   2.090   1.541   4.163  1.7763  2.5442  2.2876
  117DG     C17 2685   2.452   1.489   4.349 -0.0084  0.4064  0.5862
  117DG     C18 2686   2.250   1.595   4.301  1.2720  0.1123  0.6092
  117DG     O19 2687   2.321   1.474   4.306 -0.2740 -0.0513  0.0817
  117DG     H20 2688   2.508   1.565   4.288  2.8348  2.0757 -0.7641
  117DG     H21 2689   2.462   1.527   4.448 -2.5036 -0.5676 -1.1815
  117DG     H22 2690   2.294   1.663   4.234 -1.2807  0.2133 -0.7416
  117DG     H23 2691   2.252   1.652   4.393 -0.8401 -4.0437 -0.6791
  118DG      C1 2692   3.441   4.813   3.633  0.1148  0.3073 -0.5152
  118DG      C2 2693   2.700   4.336   3.786  0.1733 -0.0298 -0.3404
  118DG      H3 2694   3.407   4.903   3.571 -2.7557 -0.9223 -2.0579
  118DG      H4 2695   3.534   4.778   3.592  0.3958  0.6423 -2.1294
  118DG      H5 2696   3.473   4.830   3.738 -1.4159 -2.5318  1.3008
  118DG      H6 2697   2.718   4.342   3.897  0.8857 -0.5337  1.1411
  118DG      H7 2698   2.654   4.429   3.756  1.1888 -1.7656 -1.0196
  118DG      H8 2699   2.621   4.259   3.784  0.1113 -1.3477  0.7278
  118DG      O9 2700   3.338   4.714   3.627  0.3174 -0.5446  0.2426
  118DG     O10 2701   2.832   4.317   3.727  0.6418  0.0797  0.0469
  118DG     C11 2702   3.352   4.596   3.708 -0.7476 -0.3847 -0.1471
  118DG     C12 2703   2.916   4.434   3.728 -0.2404 -0.2377 -0.1588
  118DG     H13 2704   3.337   4.613   3.817  0.2506 -0.6349  0.3685
  118DG     H14 2705   3.453   4.555   3.693 -2.0691  1.4511  1.9315
  118DG     H15 2706   2.942   4.457   3.834 -1.1203 -2.5475  1.4508
  118DG     H16 2707   2.868   4.523   3.688 -0.0763  0.8198 -0.8310
  118DG     C17 2708   3.265   4.489   3.658 -0.0691  0.0951  0.3430
  118DG     C18 2709   3.050   4.413   3.648  0.2809  0.9756 -0.1663
  118DG     O19 2710   3.131   4.524   3.676  0.3786  0.3247 -0.3799
  118DG     H20 2711   3.293   4.408   3.731 -1.8547 -3.3753  2.5326
  118DG     H21 2712   3.279   4.473   3.549  0.8639  1.4704 -1.6887
  118DG     H22 2713   3.087   4.319   3.684 -1.6470  0.3592 -0.4940
  118DG     H23 2714   3.019   4.403   3.544 -2.2984  1.8061  3.6564
  119DG      C1 2715   0.934   0.333   5.360 -0.1802  0.4027 -0.1384
  119DG      C2 2716   0.719  -0.302   5.604  0.4875  0.9724 -0.0290
  119DG      H3 2717   0.924   0.399   5.278  0.6867  1.7493 -0.1175
  119DG      H4 2718   1.015   0.263   5.352 -0.9959 -1.2115 -0.1725
  119DG      H5 2719   0.953   0.399   5.447  1.4783 -2.9401  1.1360
  119DG      H6 2720   0.627  -0.358   5.636 -0.6323 -1.2211  3.2913
  119DG      H7 2721   0.778  -0.368   5.536 -1.2644 -0.5744  0.0110
  119DG      H8 2722   0.771  -0.281   5.698  1.8154 -2.7787  0.0234
  119DG      O9 2723   0.813   0.252   5.369  0.0761  0.0233  0.4409
  119DG     O10 2724   0.695  -0.179   5.529 -0.0275 -0.1092  0.2638
  119DG     C11 2725   0.770   0.221   5.242  0.3653  0.6948  0.4301
  119DG     C12 2726   0.626  -0.200   5.410  0.9051 -0.2945  0.3521
  119DG     H13 2727   0.830   0.160   5.184  0.7375 -0.7245 -0.3171
  119DG     H14 2728   0.740   0.306   5.177  0.2832 -0.7904  0.4663
  119DG     H15 2729   0.542  -0.268   5.432  0.5278  0.3366 -0.1852
  119DG     H16 2730   0.686  -0.245   5.330 -2.1753 -0.7025 -2.9987
  119DG     C17 2731   0.644   0.132   5.255  0.5456  0.2397 -0.0681
  119DG     C18 2732   0.569  -0.069   5.360 -0.0211 -0.4643 -0.4169
  119DG     O19 2733   0.682   0.009   5.313  0.2388 -0.1137 -0.1217
  119DG     H20 2734   0.611   0.125   5.150  1.7444 -1.9143 -2.5668
  119DG     H21 2735   0.573   0.180   5.321  0.1577 -0.8755 -0.6966
  119DG     H22 2736   0.503  -0.094   5.277 -0.5785  0.0377 -3.0560
  119DG     H23 2737   0.494  -0.023   5.424  1.7248 -3.0815 -1.9626
  120DG      C1 2738   2.628   1.639   2.406 -0.4261 -0.1203  0.6601
  120DG      C2 2739   2.582   2.179   1.930  0.1000 -0.3415  0.1404
  120DG      H3 2740   2.527   1.645   2.389  4.6043 -0.2558 -0.6515
  120DG      H4 2741   2.639   1.651   2.515 -1.5766  3.0259 -2.8339
  120DG      H5 2742   2.676   1.544   2.367  2.4092 -3.2114  1.9446
  120DG      H6 2743   2.641   2.233   1.865  0.4440 -2.8912 -0.4676
  120DG      H7 2744   2.496   2.120   1.899  0.0235  1.2310  0.6367
  120DG      H8 2745   2.543   2.254   1.994 -0.8028  1.1305 -1.6395
  120DG      O9 2746   2.678   1.747   2.326  0.3476 -0.4031 -0.2241
  120DG     O10 2747   2.669   2.086   1.994 -0.2074  0.3826  0.3186
  120DG     C11 2748   2.796   1.797   2.393 -0.1944 -0.5396  1.0250
  120DG     C12 2749   2.772   2.156   2.067  0.6360  0.6284 -0.2517
  120DG     H13 2750   2.853   1.717   2.433  1.3880  0.0087 -0.4459
  120DG     H14 2751   2.778   1.856   2.484  0.3779  1.3298 -0.1543
  120DG     H15 2752   2.726   2.208   2.155 -0.9045 -3.5146 -0.9053
  120DG     H16 2753   2.829   2.233   2.018 -0.0417 -1.2345  1.3405
  120DG     C17 2754   2.876   1.877   2.275  0.1003  0.6383  0.9243
  120DG     C18 2755   2.872   2.053   2.120 -0.1530  0.7286 -0.0872
  120DG     O19 2756   2.799   1.984   2.223 -0.0207  0.2383  0.9878
  120DG     H20 2757   2.889   1.801   2.193  3.5413 -1.2700  0.1075
  120DG     H21 2758   2.971   1.920   2.310 -0.5527  0.9033 -4.1699
  120DG     H22 2759   2.912   1.990   2.031 -1.2713 -2.7128 -2.8944
  120DG     H23 2760   2.959   2.104   2.162 -3.8719 -3.6737 -2.1319
  121DG      C1 2761   2.915   5.220   2.540  0.3118  0.0604 -0.6215
  121DG      C2 2762   2.392   5.657   2.385  0.5182 -0.5982 -0.3260
  121DG      H3 2763   2.940   5.245   2.431 -1.9315  2.5281 -2.0615
  121DG      H4 2764   2.848   5.135   2.534 -1.9457 -1.7755 -0.3740
  121DG      H5 2765   3.007   5.199   2.590 -0.4500  2.9511 -0.9339
  121DG      H6 2766   2.320   5.732   2.428 -3.7948  0.5435  1.3318
  121DG      H7 2767   2.428   5.716   2.295  3.1297  0.7136  0.4140
  121DG      H8 2768   2.331   5.583   2.348  2.6397 -2.7116 -1.2786
  121DG      O9 2769   2.837   5.336   2.590 -0.2006  0.3861 -0.9705
  121DG     O10 2770   2.482   5.614   2.484  0.4611  0.2566 -0.0356
  121DG     C11 2771   2.925   5.452   2.617  0.1331  0.2948  0.0162
  121DG     C12 2772   2.548   5.725   2.545 -0.2383  0.2866  0.4782
  121DG     H13 2773   2.961   5.480   2.518  0.4848 -2.2729 -1.7378
  121DG     H14 2774   3.010   5.424   2.678  2.3140  0.1047 -1.9920
  121DG     H15 2775   2.475   5.791   2.587 -0.7309 -1.8230 -1.4111
  121DG     H16 2776   2.609   5.781   2.472  0.5076  3.2365  1.9361
  121DG     C17 2777   2.852   5.576   2.674 -0.6663 -0.1079 -0.7778
  121DG     C18 2778   2.647   5.687   2.661 -0.3708 -0.0860  0.1572
  121DG     O19 2779   2.727   5.580   2.609  0.5044  0.3055 -0.6605
  121DG     H20 2780   2.909   5.666   2.659 -1.4563 -0.9011 -1.5275
  121DG     H21 2781   2.844   5.570   2.784 -0.8895 -0.3254 -0.7678
  121DG     H22 2782   2.707   5.775   2.675  0.6820 -2.1636  2.9275
  121DG     H23 2783   2.578   5.652   2.745 -0.6168 -1.6556 -0.7629
  122DG      C1 2784   5.315   0.665   2.428  0.2525  0.2995 -0.1706
  122DG      C2 2785   5.528   1.125   2.239 -0.1631  0.3583  0.1305
  122DG      H3 2786   5.353   0.714   2.517 -0.0294  1.7896  0.5734
  122DG      H4 2787   5.407   0.647   2.369  0.5148  0.4835  0.9991
  122DG      H5 2788   5.275   0.575   2.456 -0.8239  1.4432 -1.0796
  122DG      H6 2789   5.600   1.113   2.153  2.8206 -1.4122 -0.0809
  122DG      H7 2790   5.473   1.218   2.241  0.4842 -1.8835 -3.0815
  122DG      H8 2791   5.586   1.120   2.330  0.4411  0.0908  0.6582
  122DG      O9 2792   5.227   0.752   2.369  0.1565 -0.0733  0.8993
  122DG     O10 2793   5.415   1.039   2.210 -0.5208  0.1222 -0.0692
  122DG     C11 2794   5.182   0.683   2.245  0.1296 -0.0492 -0.6708
  122DG     C12 2795   5.348   1.051   2.080 -0.3533 -0.2539 -0.7687
  122DG     H13 2796   5.103   0.613   2.276  3.2399  0.6658 -0.6074
  122DG     H14 2797   5.261   0.630   2.184  2.2194 -0.5657  0.0522
  122DG     H15 2798   5.420   1.078   2.000 -2.3654  1.7583  0.7012
  122DG     H16 2799   5.298   1.151   2.085 -0.5566  3.4417  2.7888
  122DG     C17 2800   5.107   0.791   2.161  0.5235  0.0129 -0.5871
  122DG     C18 2801   5.260   0.928   2.051  0.0052  0.0244 -0.1564
  122DG     O19 2802   5.174   0.914   2.163  0.1711  0.3401  0.0346
  122DG     H20 2803   5.011   0.806   2.204  0.1336  0.2804  0.3846
  122DG     H21 2804   5.083   0.746   2.065  0.4138 -2.0581  0.4124
  122DG     H22 2805   5.209   0.934   1.953 -1.5361  2.8701 -0.1279
  122DG     H23 2806   5.327   0.839   2.043  0.9456  0.7524  0.8648
  123DG      C1 2807   0.236   1.867   3.024  0.1143  0.7640 -0.0438
  123DG      C2 2808  -0.082   2.336   2.724  0.1683  0.0175 -0.4389
  123DG      H3 2809   0.306   1.944   3.054 -1.6653  1.5578 -0.9348
  123DG      H4 2810   0.285   1.771   3.042 -0.7848 -0.4928  0.7166
  123DG      H5 2811   0.140   1.869   3.088 -3.6297 -0.2004 -0.7056
  123DG      H6 2812  -0.167   2.309   2.791 -0.3433 -1.2262  0.6135
  123DG      H7 2813  -0.041   2.420   2.774  1.4385 -1.3795 -0.3300
  123DG      H8 2814  -0.113   2.360   2.626  2.0381 -1.0735 -2.2321
  123DG      O9 2815   0.195   1.875   2.890  0.0545 -0.1346 -0.2820
  123DG     O10 2816  -0.001   2.221   2.721 -0.7353  0.0266 -0.2560
  123DG     C11 2817   0.296   1.849   2.792  0.4786 -0.0795 -0.4753
  123DG     C12 2818   0.113   2.252   2.644  0.1291 -0.2551 -0.0495
  123DG     H13 2819   0.320   1.741   2.784  0.6765 -1.0595 -0.7275
  123DG     H14 2820   0.378   1.912   2.825 -0.9153  2.2333  1.9266
  123DG     H15 2821   0.189   2.310   2.695  0.4001 -1.5193  0.5239
  123DG     H16 2822   0.095   2.312   2.556  0.5448 -2.5595 -0.3443
  123DG     C17 2823   0.248   1.911   2.658 -1.0083  1.0664  1.1896
  123DG     C18 2824   0.189   2.130   2.589  0.4746 -0.1451 -0.5468
  123DG     O19 2825   0.179   2.029   2.694 -0.5080  0.3646 -0.0775
  123DG     H20 2826   0.187   1.842   2.592  1.7337  0.7587 -1.4391
  123DG     H21 2827   0.333   1.945   2.602  1.2541 -2.2952  1.0819
  123DG     H22 2828   0.138   2.095   2.501 -2.9077  0.4645 -0.3507
  123DG     H23 2829   0.291   2.150   2.566  0.4709 -1.6923 -0.2797
  124DG      C1 2830   4.335   0.527   5.343 -0.3686  0.3381 -0.3582
  124DG      C2 2831   4.861   0.892   5.445  0.6345 -0.1184 -0.7266
  124DG      H3 2832   4.305   0.478   5.255 -0.1025  2.7901  1.0693
  124DG      H4 2833   4.247   0.559   5.399  1.1993  0.6207  2.0355
  124DG      H5 2834   4.371   0.435   5.393 -0.3119  0.2556  0.0252
  124DG      H6 2835   4.961   0.849   5.417  1.0154  0.2356  0.7943
  124DG      H7 2836   4.870   0.990   5.484 -2.5163 -0.0958 -1.6217
  124DG      H8 2837   4.847   0.816   5.527 -0.9996 -2.5928 -2.2787
  124DG      O9 2838   4.435   0.623   5.313 -0.6089 -0.2907  0.4701
  124DG     O10 2839   4.761   0.873   5.346 -0.2711  0.0587 -0.2651
  124DG     C11 2840   4.385   0.709   5.207  0.6506  0.0332  0.2519
  124DG     C12 2841   4.812   0.897   5.209 -0.5853  0.3393 -0.1649
  124DG     H13 2842   4.294   0.755   5.237 -0.0251 -1.8733  0.8035
  124DG     H14 2843   4.383   0.674   5.104  1.4060  0.7975 -0.6692
  124DG     H15 2844   4.888   0.819   5.182 -1.4837  1.4346 -0.1316
  124DG     H16 2845   4.862   0.995   5.197  2.9529  2.8868 -2.1566
  124DG     C17 2846   4.480   0.825   5.189 -0.1286 -1.1252  0.2364
  124DG     C18 2847   4.697   0.880   5.109 -0.2149  0.4319  0.0808
  124DG     O19 2848   4.603   0.776   5.159  0.0705  0.0335 -0.4891
  124DG     H20 2849   4.491   0.882   5.289 -1.2308  1.7409 -0.3499
  124DG     H21 2850   4.447   0.898   5.111  0.0767  0.7983 -0.8139
  124DG     H22 2851   4.647   0.979   5.103  1.4695  2.4250  1.5441
  124DG     H23 2852   4.751   0.851   5.019 -0.4489  1.7287 -2.0693
  125DG      C1 2853   4.706   3.619   2.129 -0.0068  0.1388 -0.1060
  125DG      C2 2854   5.282   3.334   1.830 -0.3001 -0.4306 -0.5113
  125DG      H3 2855   4.714   3.718   2.085 -0.0931  3.1627 -1.5804
  125DG      H4 2856   4.642   3.623   2.218  0.9371 -1.4037 -2.7298
  125DG      H5 2857   4.664   3.557   2.047 -1.2898 -1.5784 -0.7049
  125DG      H6 2858   5.342   3.260   1.880 -2.5112  1.3554  1.5002
  125DG      H7 2859   5.204   3.267   1.785 -2.3963  0.7597 -1.9476
  125DG      H8 2860   5.344   3.390   1.762 -0.1447 -0.7010 -1.8980
  125DG      O9 2861   4.836   3.564   2.151  0.2214  0.3249 -0.1675
  125DG     O10 2862   5.225   3.417   1.929 -0.0354  0.1665  0.3051
  125DG     C11 2863   4.926   3.665   2.205 -0.2679  0.1114  0.6043
  125DG     C12 2864   5.315   3.482   2.015 -0.1881 -0.1040 -0.4810
  125DG     H13 2865   4.885   3.712   2.294  0.5996  1.5275 -3.3206
  125DG     H14 2866   4.953   3.749   2.140 -2.3544  1.3330  2.2888
  125DG     H15 2867   5.337   3.582   1.976 -0.1958  2.0972 -0.1879
  125DG     H16 2868   5.409   3.427   2.025  2.0765 -0.0447 -0.5491
  125DG     C17 2869   5.057   3.602   2.245  0.0511  0.4988 -0.1934
  125DG     C18 2870   5.244   3.508   2.146  0.0571  0.3122  0.2574
  125DG     O19 2871   5.120   3.564   2.120  0.3553  0.5104  0.3007
  125DG     H20 2872   5.035   3.524   2.316 -0.4833  1.6298 -1.1323
  125DG     H21 2873   5.111   3.670   2.309  0.8830  1.7278  1.0575
  125DG     H22 2874   5.250   3.412   2.197  2.9799 -0.5032 -1.0891
  125DG     H23 2875   5.300   3.570   2.213  0.6486  2.4758 -0.8652
  126DG      C1 2876   0.291   5.186   2.072  0.1253 -0.3341  0.0637
  126DG      C2 2877   0.094   5.881   2.547  0.9105  0.2579  0.5111
  126DG      H3 2878   0.227   5.106   2.111 -1.1658  3.5026  0.2029
  126DG      H4 2879   0.390   5.161   2.113  1.8068 -0.5719  2.0133
  126DG      H5 2880   0.306   5.163   1.967 -0.1301 -4.8817  3.1512
  126DG      H6 2881   0.160   5.970   2.524  0.7643  1.7831 -0.0705
  126DG      H7 2882  -0.003   5.922   2.578 -1.2053  1.4107  1.0594
  126DG      H8 2883   0.128   5.818   2.626 -3.3158  0.2461 -0.4404
  126DG      O9 2884   0.248   5.313   2.111 -0.7665  0.1097 -0.0920
  126DG     O10 2885   0.083   5.816   2.424 -0.2878 -0.0584  0.4460
  126DG     C11 2886   0.323   5.421   2.047  0.4338  0.3074  0.5067
  126DG     C12 2887   0.202   5.741   2.391  0.2112  0.1718  0.3083
  126DG     H13 2888   0.330   5.395   1.940 -0.6702  0.9886 -0.5417
  126DG     H14 2889   0.427   5.415   2.086  1.4651 -0.1194 -0.0210
  126DG     H15 2890   0.223   5.665   2.468  1.7346 -0.8495 -0.3999
  126DG     H16 2891   0.287   5.805   2.369 -0.7608  1.8923 -1.2206
  126DG     C17 2892   0.255   5.554   2.077 -0.3278 -0.7840  0.2470
  126DG     C18 2893   0.166   5.677   2.260 -0.3568  0.8407  0.3067
  126DG     O19 2894   0.264   5.580   2.215 -0.4586  0.2662  0.5568
  126DG     H20 2895   0.155   5.553   2.029 -1.9536  1.3151 -1.2910
  126DG     H21 2896   0.316   5.625   2.030 -0.7807 -1.4993  1.6912
  126DG     H22 2897   0.076   5.626   2.276  1.6988  1.6749  2.2961
  126DG     H23 2898   0.154   5.748   2.179 -0.3246  1.5434 -4.4582
  127DG      C1 2899   2.756   5.283   0.732  0.5367 -0.3613  0.3205
  127DG      C2 2900   2.608   5.493   1.268  0.5878 -0.0487  0.4310
  127DG      H3 2901   2.803   5.379   0.738 -1.5381 -3.9472 -0.3186
  127DG      H4 2902   2.648   5.304   0.714 -0.9669 -2.8743 -0.3446
  127DG      H5 2903   2.802   5.235   0.649  0.4696  0.2426  1.0106
  127DG      H6 2904   2.519   5.522   1.204  0.0876 -0.3788  1.2716
  127DG      H7 2905   2.563   5.445   1.356  3.7818 -0.4355 -0.2115
  127DG      H8 2906   2.659   5.585   1.299 -2.6961 -0.5244  1.0811
  127DG      O9 2907   2.762   5.207   0.848 -0.0286 -0.5061 -0.2921
  127DG     O10 2908   2.701   5.413   1.199  0.3899 -0.3299  0.0154
  127DG     C11 2909   2.900   5.186   0.881 -0.3757 -0.0922  0.4162
  127DG     C12 2910   2.805   5.363   1.276  0.3923 -0.7175 -0.1246
  127DG     H13 2911   2.955   5.275   0.883  2.9970 -1.3155  0.9659
  127DG     H14 2912   2.942   5.116   0.810  0.2309  1.0914  0.1596
  127DG     H15 2913   2.767   5.306   1.357  2.7033 -1.3603  3.6517
  127DG     H16 2914   2.863   5.437   1.326  0.6342 -1.5834 -1.1406
  127DG     C17 2915   2.893   5.118   1.018  0.6603 -0.1156 -0.2364
  127DG     C18 2916   2.901   5.280   1.190 -0.5200  0.1170 -0.2042
  127DG     O19 2917   2.824   5.193   1.113  0.2728 -0.2611  0.6182
  127DG     H20 2918   2.990   5.078   1.052  0.1439  0.7869 -1.0148
  127DG     H21 2919   2.823   5.033   1.004  0.6424 -0.2295 -2.1450
  127DG     H22 2920   2.957   5.349   1.136 -0.0958 -3.0883  1.6132
  127DG     H23 2921   2.967   5.216   1.249  0.8264  1.1981  0.6706
  128DG      C1 2922   1.962   4.875   4.273  0.4737  1.8396  0.3302
  128DG      C2 2923   1.488   5.061   3.898 -0.5999  0.5480 -0.0251
  128DG      H3 2924   1.973   4.973   4.316 -2.8869  0.4974 -1.9627
  128DG      H4 2925   1.992   4.886   4.170 -0.7114  0.3078  1.2087
  128DG      H5 2926   2.036   4.820   4.325 -0.0942  0.8155  0.6939
  128DG      H6 2927   1.551   5.151   3.920  5.0683 -1.0235  0.4600
  128DG      H7 2928   1.520   5.025   3.802 -0.7491 -1.4116  1.8500
  128DG      H8 2929   1.380   5.078   3.891 -0.1309  2.1871 -0.2743
  128DG      O9 2930   1.831   4.835   4.294 -1.1048  0.2600 -0.4483
  128DG     O10 2931   1.519   4.969   4.004 -0.1873  0.1809  0.1708
  128DG     C11 2932   1.820   4.701   4.256  0.1538  0.3383  0.0713
  128DG     C12 2933   1.473   4.834   3.978 -0.3167 -0.5373 -0.9110
  128DG     H13 2934   1.855   4.631   4.329 -0.8328  0.2171  1.4985
  128DG     H14 2935   1.871   4.682   4.159 -3.6042 -0.4596 -0.2335
  128DG     H15 2936   1.515   4.780   3.891  1.9442 -1.9748 -1.8160
  128DG     H16 2937   1.369   4.839   3.969  1.5454  0.2447 -0.2681
  128DG     C17 2938   1.669   4.684   4.240 -0.4864  0.0642  0.1663
  128DG     C18 2939   1.494   4.745   4.095  0.6520  1.0632  0.1543
  128DG     O19 2940   1.633   4.748   4.123 -0.0474  0.2605 -0.4595
  128DG     H20 2941   1.616   4.728   4.323 -0.2985  0.4151  0.0348
  128DG     H21 2942   1.638   4.578   4.235 -0.5016 -1.4146  0.8393
  128DG     H22 2943   1.442   4.794   4.174 -0.8160 -1.0328 -1.6780
  128DG     H23 2944   1.454   4.642   4.097  2.2321 -0.4939  0.7136
  129DG      C1 2945   0.774   4.696   2.683  0.0197 -0.1882 -0.5887
  129DG      C2 2946   0.384   4.841   3.196  0.0769  0.5793  0.4923
  129DG      H3 2947   0.862   4.632   2.696  0.0491 -1.9764  2.5759
  129DG      H4 2948   0.788   4.758   2.596  1.1945 -2.4263  1.0814
  129DG      H5 2949   0.697   4.620   2.666  2.2087  0.2980  2.0696
  129DG      H6 2950   0.323   4.915   3.245 -0.1218 -1.8100 -1.1438
  129DG      H7 2951   0.317   4.778   3.132 -1.8209 -3.1902 -2.1929
  129DG      H8 2952   0.435   4.791   3.284  1.2696  0.3970  1.3471
  129DG      O9 2953   0.747   4.782   2.790 -0.4211 -0.3792  0.6299
  129DG     O10 2954   0.493   4.898   3.117 -0.3589 -0.4381 -0.0282
  129DG     C11 2955   0.860   4.862   2.807  0.2179 -0.5006 -0.1992
  129DG     C12 2956   0.564   5.004   3.172 -0.6382 -0.0459 -0.5197
  129DG     H13 2957   0.884   4.910   2.715 -0.3679 -1.6405  0.6155
  129DG     H14 2958   0.945   4.799   2.840  1.3531  0.6910  0.5717
  129DG     H15 2959   0.599   4.987   3.277  3.2976 -0.4779 -1.5723
  129DG     H16 2960   0.495   5.085   3.175 -2.3677 -2.6770 -1.3902
  129DG     C17 2961   0.836   4.965   2.919 -0.1036  0.3809 -0.5432
  129DG     C18 2962   0.690   5.037   3.089  0.1181  0.2339 -0.2747
  129DG     O19 2963   0.733   4.928   3.006 -0.2742  0.0630 -0.3057
  129DG     H20 2964   0.807   5.059   2.867  3.2501 -1.2518  0.6376
  129DG     H21 2965   0.928   4.987   2.970 -1.9060 -1.2375 -1.3927
  129DG     H22 2966   0.670   5.122   3.020  0.5603  0.1207  2.3110
  129DG     H23 2967   0.773   5.070   3.156  1.1239  2.3567  0.1092
  130DG      C1 2968   0.163   3.977   5.047  0.0045  0.1414 -0.1850
  130DG      C2 2969  -0.395   4.023   4.520 -0.0415 -0.5128  0.1902
  130DG      H3 2970   0.175   3.940   5.153 -1.7408 -2.1198  3.6633
  130DG      H4 2971   0.234   4.057   5.025 -0.7800 -0.4854  1.5749
  130DG      H5 2972   0.182   3.889   4.991 -1.6853  2.2808  1.4115
  130DG      H6 2973  -0.396   3.925   4.474  1.1865 -0.9475 -1.1775
  130DG      H7 2974  -0.490   4.072   4.495  0.3654 -0.6448 -1.7208
  130DG      H8 2975  -0.316   4.082   4.474 -1.4288 -0.5307 -1.2090
  130DG      O9 2976   0.033   4.020   5.019  0.3877  0.0012 -0.3069
  130DG     O10 2977  -0.373   4.004   4.656 -0.0113 -0.2757  0.2341
  130DG     C11 2978  -0.063   3.919   5.041  0.7759 -0.1949  0.4717
  130DG     C12 2979  -0.365   4.124   4.720 -0.1288 -0.6758  0.3957
  130DG     H13 2980  -0.049   3.872   5.138 -3.9134 -0.4811 -3.0957
  130DG     H14 2981  -0.056   3.831   4.972  1.2126  1.0588 -0.3615
  130DG     H15 2982  -0.453   4.185   4.707 -0.9948  0.4543 -0.7354
  130DG     H16 2983  -0.280   4.180   4.678  0.6838  0.7973 -0.8552
  130DG     C17 2984  -0.200   3.990   5.020  1.1706  0.0123 -0.0601
  130DG     C18 2985  -0.340   4.095   4.862  0.1624 -0.6758  0.0681
  130DG     O19 2986  -0.226   4.017   4.884  0.0116  0.2744  0.3132
  130DG     H20 2987  -0.189   4.089   5.059  1.9600 -0.8242  1.9114
  130DG     H21 2988  -0.285   3.934   5.070 -0.1397  1.7987  0.2307
  130DG     H22 2989  -0.316   4.187   4.911 -0.2401 -1.6287  0.6677
  130DG     H23 2990  -0.431   4.049   4.903  1.4377 -3.5011  1.0092
  131DG      C1 2991   4.474   3.862   1.263  0.5504  0.3724  0.1120
  131DG      C2 2992   4.370   3.573   0.677 -0.4824 -0.7492 -0.0623
  131DG      H3 2993   4.448   3.942   1.326 -1.5736 -0.6156 -0.7567
  131DG      H4 2994   4.571   3.811   1.286 -0.1360  0.9444 -1.3502
  131DG      H5 2995   4.396   3.788   1.279 -0.3711 -1.9423  3.5707
  131DG      H6 2996   4.325   3.509   0.751 -1.5932 -2.2922 -0.9843
  131DG      H7 2997   4.289   3.578   0.601  1.8388 -0.3766  0.2059
  131DG      H8 2998   4.456   3.521   0.626  2.8015 -0.7007  1.0469
  131DG      O9 2999   4.468   3.889   1.125  0.5484 -0.1042 -0.2476
  131DG     O10 3000   4.419   3.698   0.743 -0.1975 -0.2940  0.5162
  131DG     C11 3001   4.541   3.999   1.073 -1.3060 -0.0137  0.2693
  131DG     C12 3002   4.441   3.803   0.649  0.1110  0.2305 -0.0231
  131DG     H13 3003   4.652   3.975   1.075 -1.2594  1.0199 -0.4227
  131DG     H14 3004   4.533   4.089   1.136 -0.2639  1.0094 -0.3039
  131DG     H15 3005   4.380   3.801   0.563  2.6070 -0.0669  2.5506
  131DG     H16 3006   4.535   3.784   0.602  0.8688  2.9420  0.0516
  131DG     C17 3007   4.499   4.031   0.927 -0.0959 -0.2477 -0.4332
  131DG     C18 3008   4.444   3.938   0.712  0.2955  0.4349  0.3075
  131DG     O19 3009   4.511   3.920   0.838 -0.5100 -0.1581 -0.1985
  131DG     H20 3010   4.562   4.112   0.892 -0.1211 -0.1615  0.3031
  131DG     H21 3011   4.392   4.067   0.930 -0.9563  0.3349  1.7420
  131DG     H22 3012   4.502   4.000   0.648  2.0506 -0.4505  2.5484
  131DG     H23 3013   4.340   3.970   0.713 -1.8100 -0.8991  3.4119
  132DG      C1 3014   4.510   2.895   2.648  0.6133 -0.0001  0.6217
  132DG      C2 3015   3.999   2.629   2.615  1.2093  0.2669 -0.5951
  132DG      H3 3016   4.589   2.886   2.579 -2.2480 -0.2478  0.7241
  132DG      H4 3017   4.479   2.797   2.689  1.5489 -3.9525  0.8124
  132DG      H5 3018   4.537   2.970   2.729  1.1542  1.4356  0.4326
  132DG      H6 3019   4.001   2.527   2.568  2.4426 -2.9611  2.7370
  132DG      H7 3020   4.103   2.666   2.613  1.9875 -1.0861 -1.5597
  132DG      H8 3021   3.960   2.619   2.720 -2.1057  0.8049 -0.0507
  132DG      O9 3022   4.404   2.950   2.583  0.1642  0.6699  0.7225
  132DG     O10 3023   3.915   2.721   2.549 -0.3226 -0.0212 -0.8198
  132DG     C11 3024   4.367   2.882   2.465  0.6226 -0.7283 -0.5563
  132DG     C12 3025   3.917   2.860   2.592 -0.0193 -0.6184 -0.2531
  132DG     H13 3026   4.369   2.775   2.492 -0.9152  0.2226  0.1804
  132DG     H14 3027   4.440   2.895   2.390  0.7633  1.0753 -0.6157
  132DG     H15 3028   3.948   2.865   2.694 -3.7985 -3.2861 -2.3929
  132DG     H16 3029   3.815   2.888   2.592 -2.4657  1.0706 -0.6263
  132DG     C17 3030   4.234   2.939   2.427 -0.7355 -0.3327 -0.0753
  132DG     C18 3031   4.014   2.947   2.511 -0.1161 -0.2213 -0.0691
  132DG     O19 3032   4.144   2.910   2.526  0.3400 -0.1995 -0.3702
  132DG     H20 3033   4.204   2.895   2.331  0.0948 -1.6852  0.6240
  132DG     H21 3034   4.248   3.049   2.414  1.0091 -0.7489  0.8933
  132DG     H22 3035   3.982   2.937   2.409 -0.9974  0.2299  0.1372
  132DG     H23 3036   4.005   3.046   2.546 -1.3180 -1.8293  1.1633
  133DG      C1 3037   0.292   2.231   2.954 -0.6341 -0.0710  0.5243
  133DG      C2 3038  -0.296   1.976   2.702  0.5401  0.0613  0.0866
  133DG      H3 3039   0.324   2.187   2.860  1.2655  1.1642 -1.6380
  133DG      H4 3040   0.352   2.188   3.031  4.6313 -1.9584  0.1401
  133DG      H5 3041   0.306   2.339   2.940 -0.7094  0.4741  0.6060
  133DG      H6 3042  -0.235   1.918   2.643  1.6405  0.4041  1.7378
  133DG      H7 3043  -0.388   1.927   2.729  1.8679  0.7486  1.2635
  133DG      H8 3044  -0.316   2.070   2.658  0.2216 -2.7647 -1.2579
  133DG      O9 3045   0.156   2.191   2.975  0.3948  0.2881  0.4555
  133DG     O10 3046  -0.226   1.996   2.825  0.3603  0.2117 -0.1949
  133DG     C11 3047   0.091   2.273   3.079 -0.1737  0.1720  0.8813
  133DG     C12 3048  -0.308   2.072   2.911  0.1487  0.3296  0.3972
  133DG     H13 3049   0.062   2.371   3.040 -1.0101  3.4717 -1.8828
  133DG     H14 3050   0.158   2.281   3.160  0.2132  0.3992  0.0118
  133DG     H15 3051  -0.388   2.018   2.940 -0.6021 -1.0124  1.8795
  133DG     H16 3052  -0.350   2.166   2.867 -1.1784 -0.2330  0.9834
  133DG     C17 3053  -0.042   2.208   3.131  0.1756 -0.1535 -0.0780
  133DG     C18 3054  -0.226   2.095   3.040  0.3411 -0.4018  0.1161
  133DG     O19 3055  -0.104   2.159   3.017  0.1197  0.0416 -0.0370
  133DG     H20 3056  -0.103   2.277   3.189 -2.3361  1.9616  0.3160
  133DG     H21 3057  -0.010   2.126   3.200  1.0817  2.1942  3.6332
  133DG     H22 3058  -0.295   2.155   3.109  0.9079  1.6684  0.8647
  133DG     H23 3059  -0.212   1.999   3.084 -0.5337  0.3105 -0.7343
  134DG      C1 3060   3.948   0.031   2.350  0.2631  0.0721  0.0026
  134DG      C2 3061   4.479   0.171   1.982  0.1122  0.3482  0.4969
  134DG      H3 3062   3.931  -0.084   2.344  2.7701  0.3476 -1.9620
  134DG      H4 3063   3.869   0.079   2.405 -0.8780 -2.2050 -0.0092
  134DG      H5 3064   4.030   0.030   2.419 -0.2537  1.3290  2.1504
  134DG      H6 3065   4.446   0.069   1.967  0.5200  0.0963  0.0437
  134DG      H7 3066   4.555   0.191   1.905  1.0980  1.8118 -0.1087
  134DG      H8 3067   4.528   0.187   2.078  3.0297  0.3820  1.1345
  134DG      O9 3068   3.987   0.094   2.230 -0.1822 -0.2389  0.1461
  134DG     O10 3069   4.367   0.254   1.971  0.5038 -0.1725  0.2606
  134DG     C11 3070   3.929   0.035   2.116  0.4392  0.1343  0.5457
  134DG     C12 3071   4.287   0.217   1.856 -0.0483  0.1599  0.0169
  134DG     H13 3072   3.828   0.024   2.135  0.1303  0.5907  1.5413
  134DG     H14 3073   3.968  -0.060   2.090 -2.5163  1.6618  0.9416
  134DG     H15 3074   4.301   0.124   1.819 -0.5564  3.0681  0.9799
  134DG     H16 3075   4.302   0.278   1.769 -1.8957 -0.5472  0.2925
  134DG     C17 3076   3.959   0.130   2.002 -0.0563  0.4550  0.2100
  134DG     C18 3077   4.136   0.241   1.881 -0.4763  0.6562 -0.2639
  134DG     O19 3078   4.103   0.150   1.985 -0.3485 -0.2902  0.4367
  134DG     H20 3079   3.895   0.217   2.021  1.0762  1.5188  3.0911
  134DG     H21 3080   3.922   0.081   1.910 -1.0312 -2.7316 -2.3831
  134DG     H22 3081   4.129   0.336   1.914  2.4055  0.8632  0.8177
  134DG     H23 3082   4.070   0.214   1.802 -2.7594  0.1212 -0.8279
  135DG      C1 3083   4.659   4.616   2.357  0.0291  0.4407  0.0689
  135DG      C2 3084   4.188   4.764   1.958 -0.1729 -0.2201 -0.4977
  135DG      H3 3085   4.751   4.583   2.394 -1.7791 -1.2775 -0.6716
  135DG      H4 3086   4.589   4.589   2.426 -1.7387 -2.2430  0.4476
  135DG      H5 3087   4.673   4.722   2.345  1.9536 -4.2376 -2.5238
  135DG      H6 3088   4.159   4.795   1.856 -0.7140  1.3022 -3.4741
  135DG      H7 3089   4.101   4.726   2.003  0.3642 -0.6999 -0.8333
  135DG      H8 3090   4.216   4.847   2.027  0.3530  1.6917  0.7842
  135DG      O9 3091   4.623   4.555   2.238 -0.1442 -0.2481  0.0380
  135DG     O10 3092   4.293   4.666   1.960  0.9492 -0.0834 -0.6036
  135DG     C11 3093   4.727   4.562   2.135  0.6016  0.1103  0.1064
  135DG     C12 3094   4.379   4.681   1.854  0.0317  0.5756  0.4076
  135DG     H13 3095   4.810   4.502   2.168  1.4691  2.3246  0.5417
  135DG     H14 3096   4.751   4.670   2.126 -2.2183 -0.8742  0.9243
  135DG     H15 3097   4.418   4.781   1.848  1.5693 -1.4121  1.4977
  135DG     H16 3098   4.332   4.664   1.753  1.4859 -1.2261 -0.6564
  135DG     C17 3099   4.673   4.510   2.001 -0.2748 -0.1616  0.6291
  135DG     C18 3100   4.504   4.585   1.857  0.0500 -0.7375 -0.4814
  135DG     O19 3101   4.560   4.588   1.982  0.1631 -0.0125  0.2613
  135DG     H20 3102   4.627   4.407   2.016 -1.8899 -0.1832 -0.2624
  135DG     H21 3103   4.750   4.509   1.915  3.4657  1.3115 -1.3277
  135DG     H22 3104   4.474   4.487   1.831  0.8090  1.2557 -1.0985
  135DG     H23 3105   4.576   4.618   1.780 -0.9694  0.2740  2.5308
  136DG      C1 3106   2.013   2.718   2.201 -0.3718  0.0302 -0.1452
  136DG      C2 3107   1.895   2.197   1.689 -0.5973 -0.1571  0.9782
  136DG      H3 3108   2.116   2.745   2.193  1.1902  3.0921  0.2293
  136DG      H4 3109   2.001   2.643   2.279 -0.1035  2.3840 -0.5957
  136DG      H5 3110   1.960   2.803   2.243  0.1039 -1.5991 -0.7268
  136DG      H6 3111   2.007   2.190   1.691  1.0013 -0.5151 -1.6578
  136DG      H7 3112   1.834   2.140   1.759 -1.3427 -0.6885  0.1858
  136DG      H8 3113   1.845   2.162   1.595 -0.5055  1.7473  0.4091
  136DG      O9 3114   1.964   2.673   2.076 -0.1053  0.2423 -0.0361
  136DG     O10 3115   1.855   2.329   1.727  0.3548  0.3465 -0.3398
  136DG     C11 3116   2.009   2.763   1.979  0.0660  0.6013  0.2726
  136DG     C12 3117   1.915   2.433   1.645 -0.2448 -0.3062 -0.4522
  136DG     H13 3118   2.115   2.739   1.967  2.5953  0.2452 -2.6475
  136DG     H14 3119   1.993   2.867   2.015  0.5638 -0.9793  1.1479
  136DG     H15 3120   1.880   2.431   1.541  2.0233  1.8527 -0.7773
  136DG     H16 3121   2.026   2.420   1.662  1.5507  0.6833  0.5626
  136DG     C17 3122   1.932   2.749   1.844 -0.1390  0.3509 -0.2466
  136DG     C18 3123   1.874   2.572   1.692  0.1394 -0.2031 -0.4845
  136DG     O19 3124   1.944   2.615   1.804  0.1576 -0.1072 -0.1926
  136DG     H20 3125   1.973   2.810   1.766  1.8370  0.3041  1.2273
  136DG     H21 3126   1.825   2.776   1.850 -1.0570  0.9774 -2.0997
  136DG     H22 3127   1.887   2.649   1.618 -0.9915 -1.3950  0.3122
  136DG     H23 3128   1.772   2.566   1.707  1.4125 -1.5776 -1.3119
  137DG      C1 3129   0.634   4.450   3.637 -0.0670 -0.6027 -0.0769
  137DG      C2 3130   0.044   4.876   3.615  0.6965  0.3983  0.3626
  137DG      H3 3131   0.576   4.387   3.572 -0.2236  1.5356  1.8479
  137DG      H4 3132   0.609   4.419   3.738  2.5957  2.3587  1.3921
  137DG      H5 3133   0.737   4.433   3.626 -1.9103  0.5048  2.6005
  137DG      H6 3134   0.015   4.898   3.710  1.8077 -0.8080 -2.8386
  137DG      H7 3135   0.021   4.960   3.546 -0.8438 -1.5648  0.0784
  137DG      H8 3136  -0.011   4.790   3.588  1.0917 -0.7876  1.5790
  137DG      O9 3137   0.593   4.585   3.624 -0.3092  0.3367 -0.6082
  137DG     O10 3138   0.188   4.841   3.604  0.0486  0.2269 -0.5508
  137DG     C11 3139   0.657   4.667   3.718  0.1143 -0.3976 -0.2879
  137DG     C12 3140   0.259   4.945   3.663 -0.5428 -0.2431  0.6944
  137DG     H13 3141   0.770   4.660   3.703 -0.8594  1.6810  1.3692
  137DG     H14 3142   0.641   4.650   3.819 -0.2557  0.6214 -0.7669
  137DG     H15 3143   0.255   4.959   3.769  0.6437  0.4213 -2.2022
  137DG     H16 3144   0.225   5.028   3.611 -0.7405 -2.2203 -3.2126
  137DG     C17 3145   0.601   4.810   3.685 -0.3037 -0.3084  0.9716
  137DG     C18 3146   0.408   4.935   3.635 -0.6091  0.2304  0.1838
  137DG     O19 3147   0.466   4.823   3.702 -0.2283  0.0034  0.3398
  137DG     H20 3148   0.641   4.841   3.578 -0.5486  0.3790  1.2110
  137DG     H21 3149   0.640   4.876   3.768  1.2666 -2.0937 -2.8422
  137DG     H22 3150   0.423   4.921   3.523  2.6047  2.2435 -3.6971
  137DG     H23 3151   0.455   5.031   3.667  0.5496  2.1534  2.2870
  138DG      C1 3152   0.486   4.807   2.463  0.8750  0.5313 -0.2110
  138DG      C2 3153  -0.300   4.810   2.087 -0.3399 -0.3169  0.3640
  138DG      H3 3154   0.520   4.814   2.367 -0.0155  3.0790  1.4296
  138DG      H4 3155   0.511   4.711   2.506  1.4611  1.2566 -2.1459
  138DG      H5 3156   0.538   4.881   2.520  0.4979 -0.1462 -2.9561
  138DG      H6 3157  -0.291   4.901   2.038 -1.3431 -1.7064  3.2190
  138DG      H7 3158  -0.258   4.735   2.023  2.2367 -0.4073  1.5699
  138DG      H8 3159  -0.407   4.795   2.103 -0.4329  0.5891  1.1494
  138DG      O9 3160   0.351   4.834   2.478 -0.3022 -0.2814 -0.4675
  138DG     O10 3161  -0.218   4.830   2.202 -0.2857 -0.1347  0.6142
  138DG     C11 3162   0.269   4.773   2.384 -0.0444  0.2589  0.3141
  138DG     C12 3163  -0.201   4.704   2.271 -0.3086  0.1243  0.2463
  138DG     H13 3164   0.282   4.668   2.362 -0.5464  1.0899 -0.4452
  138DG     H14 3165   0.287   4.811   2.277 -1.8905  1.3804 -3.1060
  138DG     H15 3166  -0.160   4.629   2.210  2.8841  3.7314  2.0282
  138DG     H16 3167  -0.291   4.663   2.307  1.3695 -1.7689 -3.1229
  138DG     C17 3168   0.118   4.793   2.418 -0.5441 -0.4145  0.2013
  138DG     C18 3169  -0.099   4.727   2.380 -0.3050 -0.3376  0.3045
  138DG     O19 3170   0.033   4.731   2.328 -0.0282  0.4098  0.4704
  138DG     H20 3171   0.093   4.900   2.408  2.8788 -2.6095  0.1111
  138DG     H21 3172   0.096   4.765   2.517  2.7847 -0.1790 -3.6571
  138DG     H22 3173  -0.134   4.823   2.430  0.0659  1.3882  2.5855
  138DG     H23 3174  -0.109   4.647   2.448 -0.5156  1.7516  0.5925
  139DG      C1 3175   2.886   0.403   1.414  0.6910  0.1502  0.2393
  139DG      C2 3176   2.646   0.435   2.059  0.5211  0.0270 -0.0826
  139DG      H3 3177   2.956   0.485   1.393 -0.7533 -0.4369  1.8553
  139DG      H4 3178   2.833   0.352   1.333 -1.0377  0.4889 -1.5982
  139DG      H5 3179   2.957   0.338   1.462 -0.3856  0.2545 -1.1580
  139DG      H6 3180   2.627   0.502   2.147 -0.9483 -2.4883  2.2762
  139DG      H7 3181   2.580   0.349   2.066 -0.1573 -2.1024 -0.2808
  139DG      H8 3182   2.749   0.396   2.058  1.0401  0.3486 -1.1319
  139DG      O9 3183   2.797   0.455   1.509 -0.6409 -0.6288 -0.3782
  139DG     O10 3184   2.648   0.504   1.938 -0.2673  0.3096  0.3560
  139DG     C11 3185   2.671   0.504   1.451  0.2309  0.5042 -0.3317
  139DG     C12 3186   2.511   0.541   1.899 -0.6362 -0.3876 -0.0389
  139DG     H13 3187   2.607   0.423   1.423  0.8620 -0.0859 -0.5970
  139DG     H14 3188   2.672   0.562   1.355 -2.1205  0.6077 -0.9975
  139DG     H15 3189   2.486   0.620   1.971  2.3530 -0.5995  2.6665
  139DG     H16 3190   2.433   0.460   1.898 -0.5197 -2.6592 -1.5417
  139DG     C17 3191   2.601   0.598   1.547  0.1060 -0.5036 -0.3629
  139DG     C18 3192   2.520   0.612   1.765 -0.3072 -0.1829 -0.2518
  139DG     O19 3193   2.580   0.524   1.671 -0.1862 -0.0887 -0.3080
  139DG     H20 3194   2.506   0.642   1.510  0.4473 -0.1028  0.9421
  139DG     H21 3195   2.674   0.682   1.564  5.4803  0.6812  0.8782
  139DG     H22 3196   2.420   0.636   1.736  3.1000  0.3442  1.2300
  139DG     H23 3197   2.582   0.700   1.787 -0.9434  0.6386  4.0161
  140DG      C1 3198   2.374   0.155   4.497  0.5936  0.0270  0.4097
  140DG      C2 3199   2.865  -0.345   4.459 -0.1002 -0.0022  0.0177
  140DG      H3 3200   2.353   0.100   4.414 -1.4708  0.3919  1.1694
  140DG      H4 3201   2.454   0.223   4.479 -0.2176 -2.7802  0.0984
  140DG      H5 3202   2.285   0.219   4.511  0.4175 -0.6548 -1.9730
  140DG      H6 3203   2.973  -0.339   4.459 -0.4016 -3.4428 -2.6218
  140DG      H7 3204   2.832  -0.416   4.532  0.6588  1.6166 -0.9228
  140DG      H8 3205   2.827  -0.372   4.362 -0.5004 -0.9180  1.5609
  140DG      O9 3206   2.409   0.055   4.593  0.2588 -0.5341 -0.2332
  140DG     O10 3207   2.813  -0.215   4.484  0.0721 -0.1535 -0.1418
  140DG     C11 3208   2.486   0.106   4.708  0.0640 -0.1636 -0.5028
  140DG     C12 3209   2.835  -0.188   4.622  0.8125 -0.1773 -0.0749
  140DG     H13 3210   2.470   0.043   4.795 -0.1372 -4.0582 -0.3578
  140DG     H14 3211   2.451   0.212   4.730 -1.8456  2.2907  1.1761
  140DG     H15 3212   2.936  -0.208   4.654 -2.0343 -1.5557  0.1137
  140DG     H16 3213   2.768  -0.259   4.669 -0.3932 -1.4422  0.5615
  140DG     C17 3214   2.635   0.110   4.677 -0.3324 -0.8161 -0.3249
  140DG     C18 3215   2.804  -0.044   4.665 -0.4539  0.1191  0.4814
  140DG     O19 3216   2.673  -0.023   4.644  0.0529 -0.1243  0.0516
  140DG     H20 3217   2.690   0.144   4.765 -0.0516 -1.5083  1.0878
  140DG     H21 3218   2.646   0.179   4.595 -0.9924  0.5631 -0.0082
  140DG     H22 3219   2.832  -0.041   4.772  0.0456  1.6639  0.4807
  140DG     H23 3220   2.869   0.019   4.604  3.2624 -2.6654  3.3475
  141DG      C1 3221   2.750   1.951   0.944 -0.1845 -0.1921 -0.1353
  141DG      C2 3222   2.465   2.121   1.460 -0.1606  0.2418  0.2460
  141DG      H3 3223   2.814   1.865   0.914  0.9456 -1.5644  2.2462
  141DG      H4 3224   2.796   2.035   0.891  1.0386 -0.5483  0.2384
  141DG      H5 3225   2.649   1.923   0.911 -3.0653  0.6011 -0.7801
  141DG      H6 3226   2.412   2.060   1.391 -1.2214 -0.3841 -0.7328
  141DG      H7 3227   2.425   2.114   1.563 -2.4386  1.9758  1.3045
  141DG      H8 3228   2.451   2.225   1.433  0.3177  0.3332  2.2594
  141DG      O9 3229   2.753   1.992   1.079  0.0893 -0.0539 -0.4970
  141DG     O10 3230   2.605   2.089   1.457  0.2328  0.2029 -0.3919
  141DG     C11 3231   2.877   2.027   1.126  0.6172 -0.2880  0.3791
  141DG     C12 3232   2.642   1.952   1.482 -0.4665  0.1755 -0.3031
  141DG     H13 3233   2.912   2.118   1.085 -0.6116 -2.2282  1.1640
  141DG     H14 3234   2.953   1.949   1.095 -0.4170 -0.6983 -1.2710
  141DG     H15 3235   2.569   1.876   1.434  2.6031 -0.0752 -0.6221
  141DG     H16 3236   2.638   1.951   1.592 -0.7400  2.0216 -1.1123
  141DG     C17 3237   2.868   2.029   1.276  0.2268  0.2431  0.3660
  141DG     C18 3238   2.790   1.917   1.464  0.1371 -0.7942  0.2274
  141DG     O19 3239   2.835   1.902   1.330  0.1735  0.0943  0.4936
  141DG     H20 3240   2.791   2.104   1.310 -4.1414  2.8226  1.8514
  141DG     H21 3241   2.960   2.061   1.325  0.0889 -1.7591  0.4420
  141DG     H22 3242   2.856   1.986   1.516  1.9352  1.5829  0.0149
  141DG     H23 3243   2.803   1.820   1.499  0.8281  0.3941 -1.1552
  142DG      C1 3244   5.117   2.127   4.283  0.2866 -0.4268 -0.6407
  142DG      C2 3245   4.600   2.207   4.669 -0.1242 -0.0417  0.8890
  142DG      H3 3246   5.079   2.026   4.301 -0.8112 -1.1423  2.8533
  142DG      H4 3247   5.217   2.104   4.293  0.3024 -1.5286 -0.8948
  142DG      H5 3248   5.105   2.153   4.179 -1.5055 -1.5141 -0.2882
  142DG      H6 3249   4.541   2.184   4.577  0.4899  4.6445  1.4891
  142DG      H7 3250   4.607   2.112   4.732 -2.1715 -1.9320 -0.7264
  142DG      H8 3251   4.546   2.277   4.727  0.5308  0.2536  1.5422
  142DG      O9 3252   5.056   2.216   4.382  0.3789 -0.1802 -0.4407
  142DG     O10 3253   4.722   2.266   4.628 -0.1749  0.0544  0.1803
  142DG     C11 3254   5.133   2.336   4.403  0.8800  0.2148  0.2115
  142DG     C12 3255   4.781   2.337   4.732  0.3313  0.3616 -0.7270
  142DG     H13 3256   5.158   2.384   4.306 -0.0433  0.1712  2.2515
  142DG     H14 3257   5.222   2.310   4.453 -3.9352  1.4840  1.8034
  142DG     H15 3258   4.806   2.274   4.814  1.8730  0.5913 -1.3187
  142DG     H16 3259   4.709   2.408   4.773 -1.0939 -1.8818 -0.0475
  142DG     C17 3260   5.039   2.430   4.491 -0.5726  0.8550  0.1528
  142DG     C18 3261   4.905   2.420   4.688  0.1071 -0.2331  0.1816
  142DG     O19 3262   4.984   2.350   4.595  1.1965 -0.2230 -0.2795
  142DG     H20 3263   4.954   2.461   4.427 -1.4578  0.3447 -2.0892
  142DG     H21 3264   5.097   2.517   4.525 -0.4931 -0.5464 -0.9819
  142DG     H22 3265   4.864   2.517   4.657 -1.4367  1.5815 -1.5612
  142DG     H23 3266   4.969   2.444   4.773 -0.4514  2.4077 -0.0726
  143DG      C1 3267   4.209   4.824   5.157 -0.4062  0.3232 -0.0793
  143DG      C2 3268   4.345   4.725   4.532 -0.3627 -0.0902  0.2868
  143DG      H3 3269   4.315   4.832   5.183  0.3429 -1.1954  1.1661
  143DG      H4 3270   4.175   4.740   5.213  1.3139 -2.2687  0.3442
  143DG      H5 3271   4.154   4.909   5.190 -0.7033 -1.0529  1.9333
  143DG      H6 3272   4.449   4.731   4.563  1.2112  1.5977  2.1870
  143DG      H7 3273   4.353   4.704   4.429  2.8258 -1.5475 -0.0690
  143DG      H8 3274   4.297   4.822   4.547 -2.5243 -1.6088 -1.6754
  143DG      O9 3275   4.184   4.790   5.021 -0.3456  0.4132  0.1885
  143DG     O10 3276   4.279   4.624   4.613  0.4994  0.4733  0.3006
  143DG     C11 3277   4.052   4.736   5.010  0.0986 -0.4010  0.1954
  143DG     C12 3278   4.141   4.603   4.581 -0.4882 -0.1929 -0.3601
  143DG     H13 3279   3.989   4.802   5.082  1.7049  0.5504  0.1798
  143DG     H14 3280   4.048   4.625   5.034  2.1068 -0.6518 -2.3088
  143DG     H15 3281   4.118   4.500   4.609 -1.9456  1.5489  3.3788
  143DG     H16 3282   4.116   4.622   4.476  0.3800 -1.1991  2.0191
  143DG     C17 3283   3.998   4.767   4.871 -0.1543  1.1165 -0.4018
  143DG     C18 3284   4.050   4.698   4.649  0.3641 -0.1870  0.4685
  143DG     O19 3285   4.086   4.691   4.788  0.2017 -0.1725  0.4197
  143DG     H20 3286   4.007   4.879   4.850 -2.4473  0.5038  0.5862
  143DG     H21 3287   3.900   4.729   4.865 -0.0412 -0.3262  0.4353
  143DG     H22 3288   4.077   4.799   4.616 -0.8859 -0.4770  0.8853
  143DG     H23 3289   3.944   4.677   4.638 -0.4589 -1.3113 -0.0919
  144DG      C1 3290   4.845   2.683   1.688 -0.1172  0.3955  0.3474
  144DG      C2 3291   4.631   2.062   1.632  0.3163  0.0557 -0.8365
  144DG      H3 3292   4.825   2.651   1.788 -1.5369  0.6541 -0.3241
  144DG      H4 3293   4.736   2.704   1.649 -1.2388  0.5921  0.5997
  144DG      H5 3294   4.900   2.778   1.691  2.4349 -0.6088  1.8503
  144DG      H6 3295   4.548   2.101   1.685  1.9479 -0.7652 -0.7995
  144DG      H7 3296   4.581   2.029   1.541 -0.1166 -0.0572 -0.4555
  144DG      H8 3297   4.649   1.966   1.672 -0.6860  1.7548  0.4224
  144DG      O9 3298   4.927   2.575   1.643  0.0324 -0.5375 -0.6016
  144DG     O10 3299   4.747   2.138   1.615 -0.6011 -0.0848 -0.5918
  144DG     C11 3300   4.961   2.565   1.503 -0.1230 -0.5495 -0.9651
  144DG     C12 3301   4.815   2.110   1.494 -0.0048 -0.3597 -0.5724
  144DG     H13 3302   5.034   2.640   1.469 -0.2357 -1.6119  1.3813
  144DG     H14 3303   4.875   2.575   1.434  0.5372  0.6843 -1.6209
  144DG     H15 3304   4.757   2.135   1.409  2.0785 -2.5881 -0.3881
  144DG     H16 3305   4.851   2.009   1.487 -0.6118  3.7820  0.6462
  144DG     C17 3306   5.020   2.425   1.481 -0.5160 -0.1029 -0.3682
  144DG     C18 3307   4.946   2.198   1.490  0.1645  0.1318  0.3759
  144DG     O19 3308   4.915   2.334   1.486 -0.3432  0.1393  0.0905
  144DG     H20 3309   5.091   2.396   1.556 -0.6607 -2.7917 -1.8597
  144DG     H21 3310   5.068   2.422   1.381  2.7474  2.3821  0.7151
  144DG     H22 3311   5.023   2.175   1.566 -1.0367 -1.7282 -0.8066
  144DG     H23 3312   4.996   2.163   1.395 -0.6801 -0.8954 -4.6372
  145DG      C1 3313   0.583   2.087   5.447 -0.2727  0.1343 -0.2570
  145DG      C2 3314   0.543   1.368   5.459  0.2247  0.7063 -0.4500
  145DG      H3 3315   0.478   2.099   5.497 -1.6784 -0.1801  0.1289
  145DG      H4 3316   0.568   2.095   5.345 -0.2915 -1.8416  0.0806
  145DG      H5 3317   0.635   2.176   5.481 -1.7573 -1.4855  0.3835
  145DG      H6 3318   0.573   1.350   5.361 -1.9751 -0.0774  1.8473
  145DG      H7 3319   0.565   1.278   5.517  1.5268  0.6280 -1.6316
  145DG      H8 3320   0.435   1.377   5.455  2.0898  0.1071  3.2951
  145DG      O9 3321   0.650   1.975   5.501 -0.4464  0.0458 -0.5283
  145DG     O10 3322   0.609   1.484   5.509  0.4205 -0.1369  0.3832
  145DG     C11 3323   0.668   1.982   5.638  0.2875 -0.1238 -0.4611
  145DG     C12 3324   0.595   1.499   5.650 -0.2722  0.0679 -0.0953
  145DG     H13 3325   0.569   1.994   5.677 -0.2553  0.6391 -1.2545
  145DG     H14 3326   0.750   2.055   5.660 -0.4991  1.3863 -0.1837
  145DG     H15 3327   0.626   1.401   5.699 -0.8490 -1.3575  1.3406
  145DG     H16 3328   0.497   1.506   5.685  2.5955  2.5689  0.5484
  145DG     C17 3329   0.722   1.847   5.697  0.2883 -0.4912  0.3457
  145DG     C18 3330   0.685   1.614   5.699 -0.0390  0.0956 -0.8557
  145DG     O19 3331   0.633   1.744   5.659  0.0463 -0.0543 -0.5361
  145DG     H20 3332   0.727   1.851   5.802 -0.3866  1.1559 -3.7351
  145DG     H21 3333   0.830   1.830   5.666  4.1149  0.1003  1.4765
  145DG     H22 3334   0.693   1.605   5.805 -1.1539  1.2433 -1.9039
  145DG     H23 3335   0.782   1.597   5.655  1.3661 -0.3255  1.4065
  146DG      C1 3336   0.909   2.111   1.490 -0.2724  0.4448 -0.7717
  146DG      C2 3337   0.883   1.827   0.686  0.5693  1.0722 -0.4785
  146DG      H3 3338   0.803   2.122   1.507  0.5202 -1.2064 -0.2391
  146DG      H4 3339   0.945   2.204   1.460  2.1064  1.6721  3.0203
  146DG      H5 3340   0.943   2.094   1.594 -0.2297  0.7218  2.5432
  146DG      H6 3341   0.843   1.728   0.682  0.0683  0.2179 -2.7478
  146DG      H7 3342   0.797   1.886   0.715  2.8727  0.9978 -0.6756
  146DG      H8 3343   0.920   1.842   0.582  0.5366  0.5967 -2.5796
  146DG      O9 3344   0.929   2.001   1.397  0.0231  1.0765 -0.5356
  146DG     O10 3345   0.991   1.847   0.783  0.2087 -0.3067  0.0436
  146DG     C11 3346   1.061   1.991   1.355 -0.0036 -0.6311 -0.9159
  146DG     C12 3347   0.941   1.867   0.913  0.0227  0.0052 -0.9681
  146DG     H13 3348   1.124   1.983   1.441 -1.6511  2.9321 -1.4938
  146DG     H14 3349   1.081   2.084   1.307  0.0972  0.5728  2.3197
  146DG     H15 3350   0.852   1.800   0.936 -3.5174  1.6042 -1.0873
  146DG     H16 3351   0.901   1.970   0.916 -1.6587 -5.2119 -1.6606
  146DG     C17 3352   1.079   1.872   1.262 -0.4178 -0.3984  0.1767
  146DG     C18 3353   1.047   1.841   1.026  0.2991 -0.6937  0.3569
  146DG     O19 3354   1.002   1.901   1.147  1.0967  0.3620  0.2234
  146DG     H20 3355   1.040   1.781   1.307 -2.4728  0.1453 -3.5092
  146DG     H21 3356   1.178   1.838   1.245 -0.3708  0.7319  0.5121
  146DG     H22 3357   1.079   1.735   1.047 -0.5850  1.1425  2.1227
  146DG     H23 3358   1.147   1.889   0.998  0.2706  1.3040  0.1507
  147DG      C1 3359   0.984   3.074   3.826  0.0789  0.4347  0.1521
  147DG      C2 3360   1.109   2.723   4.356  0.1079 -0.0125 -0.0646
  147DG      H3 3361   1.095   3.078   3.824  0.2165 -0.5140  3.2974
  147DG      H4 3362   0.957   3.162   3.882  1.3336 -1.0159 -0.3421
  147DG      H5 3363   0.961   3.079   3.721  1.5660  0.6872  0.6767
  147DG      H6 3364   1.030   2.689   4.425  0.8674 -1.0743 -0.6157
  147DG      H7 3365   1.137   2.624   4.313 -0.2812 -1.1148  1.5890
  147DG      H8 3366   1.195   2.755   4.418 -0.5793 -1.7308  0.9703
  147DG      O9 3367   0.934   2.954   3.879  0.1570 -0.4589  0.2829
  147DG     O10 3368   1.063   2.818   4.258 -0.4375 -0.3232 -0.0822
  147DG     C11 3369   0.793   2.960   3.914 -0.0901 -0.5193  0.3182
  147DG     C12 3370   1.007   2.935   4.315  0.3143 -0.5620 -0.0805
  147DG     H13 3371   0.768   2.853   3.899 -2.6314 -1.6781  1.3806
  147DG     H14 3372   0.746   3.019   3.837 -1.6899 -0.5202  1.8526
  147DG     H15 3373   1.089   2.982   4.372  3.1264  4.0302 -0.9209
  147DG     H16 3374   0.937   2.899   4.393  2.1065 -1.4435  0.2327
  147DG     C17 3375   0.768   3.022   4.055 -0.2128 -0.6124  0.2576
  147DG     C18 3376   0.946   3.023   4.209  0.3145  0.1536  0.1719
  147DG     O19 3377   0.841   2.945   4.148 -0.3493  0.8400  0.5015
  147DG     H20 3378   0.660   3.011   4.068 -1.8091  0.2376  0.7674
  147DG     H21 3379   0.781   3.124   4.059 -0.7655  0.4809 -0.1809
  147DG     H22 3380   0.917   3.122   4.233  0.0771 -1.7646 -0.9878
  147DG     H23 3381   1.033   3.050   4.144  2.0267 -1.7913 -0.9788
  148DG      C1 3382   2.491   3.884   0.598  0.4674  0.1989  0.1934
  148DG      C2 3383   2.885   3.540   0.241 -0.0099 -0.5805 -0.6166
  148DG      H3 3384   2.488   3.789   0.650 -1.4604  1.7572 -2.0291
  148DG      H4 3385   2.394   3.927   0.604 -1.8645  2.1938  0.8503
  148DG      H5 3386   2.564   3.945   0.647 -1.2182 -0.3235 -2.2998
  148DG      H6 3387   2.961   3.558   0.315 -1.7067 -1.4930 -3.5714
  148DG      H7 3388   2.823   3.450   0.260 -1.9078  0.9079  0.4923
  148DG      H8 3389   2.942   3.522   0.145  0.8912  1.0855 -1.8274
  148DG      O9 3390   2.518   3.881   0.462  0.3089  0.0711  0.3357
  148DG     O10 3391   2.803   3.656   0.232 -0.4124  0.8606 -0.1885
  148DG     C11 3392   2.502   4.009   0.394  0.1317 -0.0512 -0.5038
  148DG     C12 3393   2.857   3.769   0.181  0.4928  0.1802 -0.1075
  148DG     H13 3394   2.553   4.089   0.443  0.7367 -0.5323 -1.0951
  148DG     H14 3395   2.401   4.050   0.395 -2.6723 -1.9310 -0.3123
  148DG     H15 3396   2.904   3.738   0.088  1.5433 -2.5993 -0.3262
  148DG     H16 3397   2.944   3.808   0.237  1.0885  2.3240  1.3684
  148DG     C17 3398   2.569   3.991   0.263  0.1911 -0.0594 -0.3158
  148DG     C18 3399   2.738   3.870   0.159 -0.3752 -0.5135  0.2348
  148DG     O19 3400   2.692   3.918   0.280 -0.6567  0.2792  0.3812
  148DG     H20 3401   2.574   4.090   0.214 -2.2435  1.3174  0.9865
  148DG     H21 3402   2.502   3.941   0.193  0.3518  0.1727  0.1791
  148DG     H22 3403   2.772   3.958   0.104 -0.0433  2.3902  1.1999
  148DG     H23 3404   2.664   3.804   0.104 -2.9541  0.8580  1.6775
  149DG      C1 3405   4.257   1.894   0.112  0.7019 -0.5728 -0.4404
  149DG      C2 3406   4.366   1.545  -0.354 -0.0474  0.2455  0.3539
  149DG      H3 3407   4.336   1.831   0.153  2.2328 -2.3989  0.5829
  149DG      H4 3408   4.222   1.952   0.196  0.1592  0.9063 -0.5704
  149DG      H5 3409   4.296   1.971   0.050  5.6374  1.3128  2.0312
  149DG      H6 3410   4.451   1.609  -0.330  0.1179  3.3122  3.2699
  149DG      H7 3411   4.409   1.446  -0.352  1.4453 -0.9590  1.9762
  149DG      H8 3412   4.344   1.567  -0.458 -2.1873 -1.3421 -0.4558
  149DG      O9 3413   4.157   1.807   0.053 -0.2230  0.4358  0.2031
  149DG     O10 3414   4.262   1.568  -0.257 -0.0841 -0.2157 -0.1932
  149DG     C11 3415   4.090   1.710   0.141 -0.2253 -0.4835 -0.7993
  149DG     C12 3416   4.175   1.459  -0.229  1.2532  0.0900  0.3754
  149DG     H13 3417   4.029   1.742   0.231 -1.7327  1.3160 -1.3341
  149DG     H14 3418   4.158   1.632   0.172  0.5644 -0.5194 -2.5821
  149DG     H15 3419   4.215   1.361  -0.233 -1.9740 -1.2935  1.2160
  149DG     H16 3420   4.094   1.469  -0.304  2.3103 -1.8679 -0.8946
  149DG     C17 3421   3.991   1.639   0.044 -0.2748 -0.4607  0.3091
  149DG     C18 3422   4.118   1.476  -0.092 -0.8122  0.0548  0.2310
  149DG     O19 3423   4.061   1.614  -0.083 -0.4721  0.3211  0.3936
  149DG     H20 3424   3.907   1.704   0.017 -0.2371  0.7676 -0.9032
  149DG     H21 3425   3.948   1.552   0.085 -0.8992  2.1400  2.6909
  149DG     H22 3426   4.036   1.402  -0.075 -1.2946  2.4816  2.5332
  149DG     H23 3427   4.192   1.459  -0.014  2.0929  1.8413  0.6003
  150DG      C1 3428   0.301   2.133   5.239 -0.0128  0.1593 -0.4928
  150DG      C2 3429  -0.106   1.653   5.454  0.1420  0.6035  0.0620
  150DG      H3 3430   0.320   2.225   5.186  0.2574 -1.9305 -1.3497
  150DG      H4 3431   0.377   2.050   5.231  0.9489 -0.1716 -0.1480
  150DG      H5 3432   0.303   2.169   5.342 -0.3898  1.3585  0.4715
  150DG      H6 3433  -0.104   1.555   5.402 -0.8996  0.2366  2.2181
  150DG      H7 3434  -0.025   1.668   5.528 -2.5023  2.1756 -0.6375
  150DG      H8 3435  -0.197   1.645   5.508  2.3199  1.7466 -0.9521
  150DG      O9 3436   0.166   2.099   5.216 -0.7097 -0.1235  0.5867
  150DG     O10 3437  -0.106   1.765   5.365  0.0565  0.3334 -0.3191
  150DG     C11 3438   0.143   2.055   5.081  0.2799 -0.0262 -0.7241
  150DG     C12 3439  -0.195   1.753   5.251  0.1512 -1.1498 -0.3682
  150DG     H13 3440   0.204   1.972   5.055  0.4996  1.3135 -0.5917
  150DG     H14 3441   0.172   2.136   5.020 -0.5418 -1.1826  3.2541
  150DG     H15 3442  -0.302   1.743   5.282 -3.1090  2.7989 -2.8324
  150DG     H16 3443  -0.168   1.660   5.202 -0.0039  0.6122 -2.4318
  150DG     C17 3444  -0.008   2.018   5.063  0.4514 -0.0062  0.2804
  150DG     C18 3445  -0.173   1.866   5.153  0.0905 -0.5899 -0.0700
  150DG     O19 3446  -0.034   1.903   5.145  0.1716 -0.0804 -0.3082
  150DG     H20 3447  -0.026   2.002   4.959 -3.3817  1.8323  1.7362
  150DG     H21 3448  -0.072   2.102   5.089 -0.4667 -0.9838  3.6350
  150DG     H22 3449  -0.225   1.841   5.061 -2.5343 -0.4254  5.8840
  150DG     H23 3450  -0.230   1.953   5.205 -1.2501  2.8368  1.6415
  151DG      C1 3451   3.203   1.876   0.471  0.1338  0.4328 -0.2194
  151DG      C2 3452   3.466   2.232   0.909  0.8751 -0.7311  0.3354
  151DG      H3 3453   3.195   1.985   0.474 -0.6237  1.6338 -4.1560
  151DG      H4 3454   3.164   1.844   0.375 -0.7304 -0.7073  1.6246
  151DG      H5 3455   3.305   1.844   0.475 -0.1293 -0.7922 -1.0353
  151DG      H6 3456   3.490   2.131   0.948 -1.5716  2.3841 -1.1505
  151DG      H7 3457   3.558   2.264   0.858 -0.8307 -0.0793 -1.7967
  151DG      H8 3458   3.442   2.295   0.993  0.3501  1.0984 -0.7252
  151DG      O9 3459   3.132   1.813   0.583 -0.3706  0.2571  0.2898
  151DG     O10 3460   3.354   2.219   0.815 -0.1689  0.1907 -0.1180
  151DG     C11 3461   3.183   1.836   0.715  0.7827 -0.0422 -0.2039
  151DG     C12 3462   3.225   2.230   0.877  0.9249 -0.1402 -0.4479
  151DG     H13 3463   3.289   1.861   0.713 -1.5306 -0.8406  1.2050
  151DG     H14 3464   3.175   1.741   0.772 -0.9137 -1.2547  2.7054
  151DG     H15 3465   3.210   2.339   0.913  0.0791  1.1642 -0.7819
  151DG     H16 3466   3.227   2.169   0.969  0.0455  1.8132  1.5594
  151DG     C17 3467   3.115   1.954   0.783  0.1442  0.5505 -0.4840
  151DG     C18 3468   3.120   2.193   0.774 -0.3100  0.6518  0.3722
  151DG     O19 3469   3.142   2.071   0.711  0.5684  0.2514 -0.0562
  151DG     H20 3470   3.146   1.959   0.885  0.6362 -0.1629  0.7131
  151DG     H21 3471   3.012   1.938   0.791 -2.1515  0.2899  0.4667
  151DG     H22 3472   3.020   2.202   0.824  1.3249  1.2870 -0.4613
  151DG     H23 3473   3.132   2.268   0.698  0.0141 -0.7625  0.1864
  152DG      C1 3474   5.212   3.615   1.469  0.6047 -0.7544  0.8972
  152DG      C2 3475   5.119   4.221   1.317 -0.7230  0.1203 -0.0904
  152DG      H3 3476   5.205   3.509   1.464  0.0177  1.5967 -2.0070
  152DG      H4 3477   5.297   3.649   1.535 -0.1893  1.4727  4.7574
  152DG      H5 3478   5.240   3.640   1.370  0.5525 -1.0922  4.5760
  152DG      H6 3479   5.211   4.244   1.369  0.5014 -1.3579 -0.8872
  152DG      H7 3480   5.137   4.200   1.216  1.0745  0.1238  0.0669
  152DG      H8 3481   5.066   4.320   1.308  0.4133 -2.0396  1.5756
  152DG      O9 3482   5.093   3.694   1.477  0.5205  0.2247  0.0861
  152DG     O10 3483   5.033   4.134   1.388  0.1444 -0.9643 -0.2109
  152DG     C11 3484   4.984   3.637   1.409  0.2727  0.2211  0.2124
  152DG     C12 3485   4.910   4.099   1.326  0.1901 -0.1916 -0.2924
  152DG     H13 3486   4.957   3.546   1.461  4.2679 -0.5405  2.2265
  152DG     H14 3487   5.006   3.613   1.307  2.3444  2.0252  1.3894
  152DG     H15 3488   4.930   4.076   1.216 -1.0734  0.3492 -0.8990
  152DG     H16 3489   4.834   4.186   1.318 -0.4027  0.0619  0.9045
  152DG     C17 3490   4.869   3.737   1.410 -0.1713  0.0553 -0.0079
  152DG     C18 3491   4.842   3.973   1.386 -0.6549  0.0756  0.7294
  152DG     O19 3492   4.927   3.858   1.365 -0.1698  0.7515  0.5889
  152DG     H20 3493   4.831   3.746   1.506 -0.3074 -0.1408 -0.5159
  152DG     H21 3494   4.789   3.691   1.356 -0.4334 -3.0089 -1.1169
  152DG     H22 3495   4.823   3.986   1.495 -0.7526  1.2223  0.0812
  152DG     H23 3496   4.732   3.966   1.353 -2.5833 -0.7608  0.5468
  153DG      C1 3497   3.756   0.318   5.376  0.0704  1.1681 -0.0391
  153DG      C2 3498   3.444   0.848   5.130 -1.0051  0.1208  0.0671
  153DG      H3 3499   3.670   0.275   5.428 -1.8556 -1.4746  2.1873
  153DG      H4 3500   3.840   0.282   5.436  2.6354  1.2592  1.2518
  153DG      H5 3501   3.762   0.262   5.280  0.9916  0.4944 -2.6840
  153DG      H6 3502   3.466   0.942   5.081 -1.0814  1.6800  2.3463
  153DG      H7 3503   3.340   0.845   5.138  1.0568  0.8703  0.3601
  153DG      H8 3504   3.479   0.841   5.232  3.6402  1.1398 -0.2430
  153DG      O9 3505   3.764   0.456   5.339 -0.0577 -0.1141 -0.7632
  153DG     O10 3506   3.496   0.737   5.054 -0.2277 -0.0312 -0.3752
  153DG     C11 3507   3.891   0.491   5.282  0.1437 -0.1578  0.4542
  153DG     C12 3508   3.616   0.770   4.987 -0.3473  0.6275 -0.2863
  153DG     H13 3509   3.920   0.424   5.199  1.3994 -0.5330 -0.6367
  153DG     H14 3510   3.970   0.505   5.352 -0.4059  0.2889 -1.7328
  153DG     H15 3511   3.604   0.870   4.945  0.0689 -1.0687  2.0876
  153DG     H16 3512   3.626   0.701   4.903 -0.2917  3.9458 -1.6541
  153DG     C17 3513   3.871   0.634   5.231 -0.7915 -0.2201 -0.2593
  153DG     C18 3514   3.755   0.761   5.071 -0.3551 -0.3751 -0.0911
  153DG     O19 3515   3.759   0.640   5.141 -0.2890 -0.1871  0.5525
  153DG     H20 3516   3.959   0.671   5.183 -1.7562  0.7783 -2.6150
  153DG     H21 3517   3.850   0.715   5.298 -0.4647 -1.6126 -0.2036
  153DG     H22 3518   3.846   0.771   5.008 -2.1310 -2.0343  1.0261
  153DG     H23 3519   3.762   0.849   5.142  1.1846 -1.5692  1.9104
  154DG      C1 3520   5.141   4.203   0.468 -0.2634 -0.0935  0.5252
  154DG      C2 3521   5.343   3.931  -0.048 -0.3621  0.5870 -0.2447
  154DG      H3 3522   5.183   4.135   0.539 -0.1355  1.0942 -0.2811
  154DG      H4 3523   5.080   4.133   0.421 -0.4096  1.6108  2.4925
  154DG      H5 3524   5.082   4.274   0.530 -0.0344  0.4814  0.4919
  154DG      H6 3525   5.243   3.905  -0.077 -0.6149 -1.2211 -2.3256
  154DG      H7 3526   5.391   3.940  -0.148  0.9160 -0.1649 -0.5974
  154DG      H8 3527   5.392   3.857   0.031  2.2861 -1.0396 -0.5004
  154DG      O9 3528   5.234   4.270   0.381 -0.8457 -0.1868 -0.4033
  154DG     O10 3529   5.324   4.053   0.023 -0.4476  0.0331  0.2452
  154DG     C11 3530   5.168   4.368   0.294 -0.4048 -0.0881 -0.0523
  154DG     C12 3531   5.321   4.164  -0.063  0.1496 -0.0124  0.7427
  154DG     H13 3532   5.132   4.453   0.352 -0.8216 -1.4883  1.1838
  154DG     H14 3533   5.082   4.325   0.239  1.4893 -0.4858  0.1518
  154DG     H15 3534   5.245   4.143  -0.143 -1.2326 -1.1381  1.0858
  154DG     H16 3535   5.411   4.199  -0.096  1.9039  2.2040  0.0827
  154DG     C17 3536   5.279   4.421   0.195  0.0800  0.0136 -0.5587
  154DG     C18 3537   5.265   4.288   0.008 -0.0626 -0.3743  0.0516
  154DG     O19 3538   5.341   4.319   0.125 -0.7101  0.2436 -0.0802
  154DG     H20 3539   5.363   4.474   0.247  0.7725 -0.5264 -5.0429
  154DG     H21 3540   5.245   4.505   0.131  1.4325  1.1263 -1.4810
  154DG     H22 3541   5.267   4.361  -0.076 -1.6511 -2.3944  0.0585
  154DG     H23 3542   5.157   4.282   0.033 -1.9300 -1.6305 -0.4762
  155DG      C1 3543   0.310   3.899   2.569 -0.3443 -0.1480  0.8022
  155DG      C2 3544   0.898   3.671   2.733  1.1293 -0.1927  0.3985
  155DG      H3 3545   0.265   3.992   2.518  2.1242  1.2642  0.9125
  155DG      H4 3546   0.228   3.842   2.615 -2.1453  0.3278  1.0924
  155DG      H5 3547   0.331   3.838   2.483  1.8579  1.4096  1.9401
  155DG      H6 3548   0.854   3.600   2.662 -2.1294  1.6494 -1.8091
  155DG      H7 3549   0.989   3.715   2.694 -3.1328 -2.3521 -1.2114
  155DG      H8 3550   0.911   3.625   2.828  0.3067 -0.4986 -0.4898
  155DG      O9 3551   0.419   3.917   2.655 -0.1921  0.1405 -0.2665
  155DG     O10 3552   0.808   3.792   2.747  0.0408  0.6080  0.0205
  155DG     C11 3553   0.393   4.011   2.759  0.0752 -0.3580  0.3630
  155DG     C12 3554   0.839   3.870   2.860 -0.3636  0.2643  0.7237
  155DG     H13 3555   0.318   3.971   2.830 -1.2540  1.4833 -0.3502
  155DG     H14 3556   0.350   4.091   2.706 -0.8853 -1.0339  1.4808
  155DG     H15 3557   0.943   3.907   2.871 -2.3418  1.1355  1.1546
  155DG     H16 3558   0.814   3.825   2.961  2.5356  1.0789  1.1379
  155DG     C17 3559   0.528   4.060   2.817  0.2519 -0.0970 -0.1307
  155DG     C18 3560   0.746   3.990   2.854  0.1796 -0.1079 -0.1498
  155DG     O19 3561   0.611   3.942   2.835  0.3190 -0.1155  0.2878
  155DG     H20 3562   0.507   4.100   2.916  1.7807  1.3646  1.8025
  155DG     H21 3563   0.572   4.138   2.750 -0.9499  0.2490 -2.3902
  155DG     H22 3564   0.767   4.041   2.951 -2.1844 -2.5127 -1.5170
  155DG     H23 3565   0.770   4.044   2.764 -1.7693 -1.8052  1.5826
  156DG      C1 3566   3.740   5.390   2.935  0.8561 -0.1872  0.5507
  156DG      C2 3567   4.056   4.865   2.730 -1.0352  0.0198 -0.4406
  156DG      H3 3568   3.743   5.457   2.848 -0.5890  0.1091  0.0184
  156DG      H4 3569   3.668   5.440   3.004  0.1837  2.1101 -3.7987
  156DG      H5 3570   3.683   5.295   2.918  0.3581  2.4580  2.0857
  156DG      H6 3571   4.093   4.928   2.652 -0.4526 -3.2806 -1.3708
  156DG      H7 3572   4.123   4.785   2.747  1.4427  0.0152  3.0448
  156DG      H8 3573   3.963   4.829   2.683 -0.5049 -2.8855  0.3670
  156DG      O9 3574   3.864   5.351   2.997 -0.0361 -0.5579  0.0823
  156DG     O10 3575   4.052   4.953   2.841 -0.2924  0.0433 -0.0627
  156DG     C11 3576   3.840   5.288   3.124  0.3187 -0.0664  0.1082
  156DG     C12 3577   3.920   4.972   2.882 -0.4526  0.0890 -0.1905
  156DG     H13 3578   3.747   5.230   3.130 -1.3208  1.0222 -0.7522
  156DG     H14 3579   3.824   5.357   3.211  0.6513  3.5304 -1.1666
  156DG     H15 3580   3.851   4.890   2.869  1.0127  0.5905  0.0699
  156DG     H16 3581   3.874   5.046   2.817  2.4889  0.3644  0.3011
  156DG     C17 3582   3.965   5.199   3.155  0.2108  0.5150 -0.4344
  156DG     C18 3583   3.923   5.021   3.025 -0.4736  0.1535  0.0693
  156DG     O19 3584   3.999   5.137   3.033  0.2370 -0.2159 -0.4874
  156DG     H20 3585   3.947   5.143   3.246 -2.6431 -2.6747 -0.2941
  156DG     H21 3586   4.054   5.259   3.175  0.2101  2.3130 -0.9261
  156DG     H22 3587   3.824   5.017   3.054 -3.8418 -0.1574 -1.5899
  156DG     H23 3588   3.977   4.944   3.086  0.4539  2.7458  0.7177
  157DG      C1 3589   2.308   3.120   2.463  0.1032 -0.0159 -0.1671
  157DG      C2 3590   2.696   2.454   2.703  0.4661  0.0945  0.0439
  157DG      H3 3591   2.258   3.068   2.386  0.4743 -1.4288 -1.5327
  157DG      H4 3592   2.393   3.177   2.426  0.5394 -0.7181 -0.1370
  157DG      H5 3593   2.232   3.185   2.511  0.9970 -0.3665 -4.7159
  157DG      H6 3594   2.630   2.412   2.628  0.6948 -0.4235  0.2666
  157DG      H7 3595   2.801   2.443   2.678  0.6110 -0.5791 -0.7649
  157DG      H8 3596   2.684   2.395   2.801  0.9375 -0.3392 -0.3494
  157DG      O9 3597   2.357   3.022   2.561  0.4710 -0.2198  0.4145
  157DG     O10 3598   2.663   2.591   2.706 -0.4656 -0.0303 -0.1189
  157DG     C11 3599   2.431   3.076   2.671 -0.6017  0.2506 -0.2749
  157DG     C12 3600   2.540   2.614   2.778  0.0684  0.2515 -0.3646
  157DG     H13 3601   2.365   3.153   2.706 -0.5728 -1.5241  0.2046
  157DG     H14 3602   2.520   3.128   2.636  0.9933  1.3965  1.3279
  157DG     H15 3603   2.537   2.551   2.872  0.2870  0.1973  0.1639
  157DG     H16 3604   2.457   2.580   2.713  0.4281  0.5969 -0.8415
  157DG     C17 3605   2.450   2.963   2.774  0.5094  1.0824 -0.4487
  157DG     C18 3606   2.519   2.755   2.828 -0.2541  0.3219 -0.5675
  157DG     O19 3607   2.490   2.841   2.720 -0.3372 -0.0527  0.9246
  157DG     H20 3608   2.346   2.949   2.816 -0.8394 -0.0458  1.2556
  157DG     H21 3609   2.516   3.001   2.853  4.2479 -0.3913  1.8598
  157DG     H22 3610   2.437   2.756   2.906 -1.1947  1.3009  1.9149
  157DG     H23 3611   2.603   2.795   2.877 -0.7370 -1.6836 -3.5506
  158DG      C1 3612   3.499   5.072   1.303  0.7210  0.6475  0.8290
  158DG      C2 3613   4.089   4.693   1.583  0.2470  0.2937 -0.0100
  158DG      H3 3614   3.488   5.119   1.210 -2.3449  1.1812  1.5739
  158DG      H4 3615   3.546   5.142   1.371 -4.1278  0.1167 -2.8439
  158DG      H5 3616   3.409   5.036   1.352  1.4430  0.3448  0.3044
  158DG      H6 3617   4.040   4.646   1.666  0.3285 -0.3500 -0.2557
  158DG      H7 3618   4.136   4.625   1.515  0.8531 -0.4328  2.6947
  158DG      H8 3619   4.173   4.739   1.632 -1.9754 -0.4794 -0.0326
  158DG      O9 3620   3.587   4.965   1.272  0.3197 -0.0847  0.8067
  158DG     O10 3621   4.006   4.787   1.514 -0.5002  0.4339 -0.0191
  158DG     C11 3622   3.603   4.868   1.373 -0.9496 -0.2781 -0.5639
  158DG     C12 3623   3.991   4.913   1.582  0.1727  0.0835  0.7419
  158DG     H13 3624   3.649   4.787   1.315  0.6655  2.7917 -2.0226
  158DG     H14 3625   3.508   4.838   1.414 -0.4706  1.3265  3.0148
  158DG     H15 3626   4.086   4.950   1.597 -4.3324 -3.2721 -0.2790
  158DG     H16 3627   3.929   4.901   1.675 -1.0315  0.0904 -2.3357
  158DG     C17 3628   3.699   4.920   1.480 -1.0634 -0.9302 -0.1168
  158DG     C18 3629   3.912   5.017   1.499  0.7810  1.0298  0.0729
  158DG     O19 3630   3.813   4.957   1.408 -0.3681  0.7578  0.3954
  158DG     H20 3631   3.708   4.845   1.557  2.7804  0.0168  0.7041
  158DG     H21 3632   3.656   5.010   1.516  1.5016 -3.3020 -2.2445
  158DG     H22 3633   3.857   5.091   1.566 -1.5780 -0.9890  1.2143
  158DG     H23 3634   3.990   5.067   1.450  1.4336 -1.7756 -0.2423
  159DG      C1 3635   3.887   1.777   1.447 -0.1969  0.5664  0.6206
  159DG      C2 3636   3.229   1.214   1.691 -0.3312 -0.0430  0.3976
  159DG      H3 3637   3.959   1.706   1.412  0.1543 -0.1713  0.8107
  159DG      H4 3638   3.929   1.877   1.462  1.1743 -1.3503 -1.8292
  159DG      H5 3639   3.820   1.806   1.370  1.6049  0.3217  2.0438
  159DG      H6 3640   3.155   1.267   1.747 -0.9588  3.1137  0.0734
  159DG      H7 3641   3.177   1.176   1.613  0.5449 -1.4469 -0.4895
  159DG      H8 3642   3.269   1.129   1.750  0.3776 -1.1401  0.9041
  159DG      O9 3643   3.809   1.724   1.558 -0.4168 -0.2468  0.2107
  159DG     O10 3644   3.330   1.301   1.660  0.4723 -0.2825 -0.1746
  159DG     C11 3645   3.711   1.626   1.528  0.2533 -0.0621  0.6559
  159DG     C12 3646   3.384   1.372   1.774 -0.3336  0.0805 -0.3580
  159DG     H13 3647   3.750   1.553   1.456  0.0808 -0.2696  1.6923
  159DG     H14 3648   3.622   1.677   1.481  0.0999  0.0090 -2.6684
  159DG     H15 3649   3.364   1.315   1.863  1.5356  1.0432 -0.6322
  159DG     H16 3650   3.343   1.471   1.796  0.6172 -0.2927 -2.0008
  159DG     C17 3651   3.669   1.569   1.661  0.3106  0.3832 -0.1776
  159DG     C18 3652   3.535   1.387   1.751  0.3970 -0.8746 -0.4216
  159DG     O19 3653   3.571   1.472   1.637 -0.4595 -0.3820 -0.0823
  159DG     H20 3654   3.636   1.653   1.728  0.0704  1.5545 -0.2179
  159DG     H21 3655   3.765   1.524   1.700  0.5603  0.5485 -1.6344
  159DG     H22 3656   3.582   1.433   1.842 -1.9584  3.1243  2.9391
  159DG     H23 3657   3.587   1.298   1.728 -0.3505  0.4998  1.5606
  160DG      C1 3658   2.705   4.328   0.642  0.3730  0.7079  0.5358
  160DG      C2 3659   2.783   4.815   1.299  0.4687  0.6255 -1.0068
  160DG      H3 3660   2.670   4.345   0.747  1.3590  0.0320  2.0393
  160DG      H4 3661   2.741   4.233   0.619 -0.7240  0.6943 -1.6019
  160DG      H5 3662   2.623   4.345   0.571 -0.5880 -3.0728 -0.0848
  160DG      H6 3663   2.822   4.894   1.363 -0.3914 -1.0340 -0.9364
  160DG      H7 3664   2.679   4.826   1.303  2.2646 -0.7004 -1.5624
  160DG      H8 3665   2.822   4.731   1.355  1.4610 -2.7267 -2.0637
  160DG      O9 3666   2.808   4.413   0.614 -0.1541 -0.2274  0.4154
  160DG     O10 3667   2.847   4.825   1.176 -0.1697 -0.4486  0.5555
  160DG     C11 3668   2.775   4.553   0.630 -0.5324 -0.4234  0.3669
  160DG     C12 3669   2.811   4.714   1.094  0.5173  0.0641  0.6267
  160DG     H13 3670   2.679   4.566   0.675 -2.2089  0.6424 -1.1751
  160DG     H14 3671   2.785   4.595   0.529  4.1306  1.3919  3.3065
  160DG     H15 3672   2.707   4.738   1.076  3.2459  1.2884 -0.6344
  160DG     H16 3673   2.819   4.614   1.138  0.4703 -0.1628 -0.7472
  160DG     C17 3674   2.863   4.633   0.728 -0.0182 -0.1471 -0.7454
  160DG     C18 3675   2.886   4.719   0.957  0.1265  1.1564 -0.0117
  160DG     O19 3676   2.835   4.617   0.867  0.0887 -0.1145 -0.8155
  160DG     H20 3677   2.845   4.733   0.710 -2.0468 -1.7873  0.1018
  160DG     H21 3678   2.964   4.605   0.698 -0.8789 -0.2841 -3.0135
  160DG     H22 3679   2.867   4.810   0.918 -1.2044  0.7694 -0.3411
  160DG     H23 3680   2.995   4.715   0.971  0.6773 -1.8195  2.9707
  161DG      C1 3681   4.258   5.442   0.981  0.5822 -0.6643 -0.2259
  161DG      C2 3682   3.839   5.968   1.171 -0.2468  0.4849  0.0736
  161DG      H3 3683   4.245   5.343   0.934 -0.2883  1.8044 -2.4338
  161DG      H4 3684   4.334   5.442   1.062  1.9273  0.1228 -3.3332
  161DG      H5 3685   4.305   5.512   0.907  0.4045  0.0058 -1.1778
  161DG      H6 3686   3.898   6.052   1.132  1.1310 -0.3204 -0.0723
  161DG      H7 3687   3.741   6.006   1.201  2.6750  0.7070  1.2569
  161DG      H8 3688   3.872   5.913   1.255 -2.6179  3.0798  1.2529
  161DG      O9 3689   4.139   5.492   1.038 -0.0398  0.7540  0.5486
  161DG     O10 3690   3.826   5.882   1.058  0.5954 -0.6692 -0.6200
  161DG     C11 3691   4.037   5.520   0.943  0.4671  0.0011  0.0186
  161DG     C12 3692   3.726   5.783   1.075 -0.3589 -0.1546 -0.0984
  161DG     H13 3693   4.038   5.456   0.854  1.5242  0.4712  0.1806
  161DG     H14 3694   4.069   5.619   0.904 -1.7681 -2.9490  0.2632
  161DG     H15 3695   3.689   5.759   0.974  2.7914 -3.1119 -0.0913
  161DG     H16 3696   3.637   5.818   1.126 -0.3344  0.0108 -0.4207
  161DG     C17 3697   3.897   5.536   1.008  0.0477  0.0731  0.3514
  161DG     C18 3698   3.779   5.667   1.165 -0.4747 -0.3236 -0.1638
  161DG     O19 3699   3.906   5.625   1.124 -0.5195 -0.0444  0.4115
  161DG     H20 3700   3.859   5.442   1.045  1.2558  1.7892  2.9925
  161DG     H21 3701   3.835   5.563   0.927  3.0197 -0.2709 -1.2018
  161DG     H22 3702   3.789   5.713   1.271 -1.1185  1.9910  1.6941
  161DG     H23 3703   3.711   5.579   1.169  0.0608  0.2924  1.5674
  162DG      C1 3704   4.779   4.412   0.540  0.6755  0.3102  0.4061
  162DG      C2 3705   4.295   3.922   0.265 -0.6333 -0.1254  0.2344
  162DG      H3 3706   4.842   4.349   0.606  1.9437 -1.4371  2.2328
  162DG      H4 3707   4.758   4.508   0.595 -2.4523  1.6069  0.0498
  162DG      H5 3708   4.833   4.432   0.452 -1.0058  0.0113 -3.0325
  162DG      H6 3709   4.202   3.921   0.210  0.3917 -3.9931  1.5050
  162DG      H7 3710   4.379   3.960   0.209  2.3275  0.5390  0.4510
  162DG      H8 3711   4.315   3.818   0.302 -0.2681 -0.1863  1.9510
  162DG      O9 3712   4.653   4.357   0.513  0.5732 -0.4863 -0.2682
  162DG     O10 3713   4.284   4.004   0.377  1.1832 -0.4614  0.6314
  162DG     C11 3714   4.585   4.313   0.628  0.5023 -0.0690  0.1089
  162DG     C12 3715   4.251   4.133   0.329  0.6785 -0.3872 -0.6526
  162DG     H13 3716   4.591   4.383   0.710  0.3255 -0.4363  0.5981
  162DG     H14 3717   4.608   4.210   0.660  0.4149 -1.4572 -0.4636
  162DG     H15 3718   4.144   4.149   0.300  1.3806  1.0145  0.9189
  162DG     H16 3719   4.313   4.165   0.245  0.7808  0.6641  0.2072
  162DG     C17 3720   4.432   4.306   0.590 -0.8768 -0.5494 -0.1679
  162DG     C18 3721   4.281   4.233   0.443 -0.3811 -0.1869 -0.1292
  162DG     O19 3722   4.421   4.243   0.466  0.0989  0.0980  0.4445
  162DG     H20 3723   4.389   4.403   0.590 -2.8479  2.1874  1.3492
  162DG     H21 3724   4.379   4.266   0.673 -0.2717 -2.0829 -0.0026
  162DG     H22 3725   4.245   4.331   0.405  1.0793  1.6525 -1.7004
  162DG     H23 3726   4.227   4.197   0.533  1.0720 -3.3933  0.7636
  163DG      C1 3727   4.746   1.065   0.425 -0.0603  0.2073 -0.1675
  163DG      C2 3728   4.367   1.533   0.370 -0.5966 -0.2300  0.2465
  163DG      H3 3729   4.837   1.014   0.406 -2.9496 -0.0618 -0.0069
  163DG      H4 3730   4.669   1.018   0.365  1.6086  1.8583  0.2415
  163DG      H5 3731   4.710   1.025   0.522 -0.1919 -1.7791  0.1498
  163DG      H6 3732   4.308   1.444   0.335 -0.9244 -2.8379 -1.9577
  163DG      H7 3733   4.369   1.525   0.475 -1.1794 -1.3583 -2.4344
  163DG      H8 3734   4.317   1.619   0.336 -0.2915 -2.3320 -0.7090
  163DG      O9 3735   4.749   1.207   0.400 -0.1039 -0.2405 -0.0468
  163DG     O10 3736   4.491   1.522   0.314  0.3226 -0.1358  0.1840
  163DG     C11 3737   4.820   1.275   0.506  0.4938  0.8001  0.1629
  163DG     C12 3738   4.574   1.625   0.360 -0.2973 -0.2761  0.3478
  163DG     H13 3739   4.931   1.259   0.503 -0.3064  1.2436  1.7892
  163DG     H14 3740   4.796   1.239   0.611  3.0557 -1.3953  0.7494
  163DG     H15 3741   4.573   1.635   0.466 -2.9620  1.4997 -0.9396
  163DG     H16 3742   4.540   1.722   0.318  1.4291  0.2698  1.7836
  163DG     C17 3743   4.783   1.428   0.494  0.6379  0.5725  0.3208
  163DG     C18 3744   4.715   1.587   0.323 -0.7538  0.3316 -0.1763
  163DG     O19 3745   4.758   1.449   0.362  1.3128 -0.4752  0.2563
  163DG     H20 3746   4.862   1.496   0.525  0.7500 -3.7094  0.6358
  163DG     H21 3747   4.689   1.456   0.540 -0.6803 -0.7041  0.6079
  163DG     H22 3748   4.725   1.599   0.213  1.4301  0.0267 -0.7975
  163DG     H23 3749   4.780   1.659   0.377 -0.3645 -1.7043 -3.3994
  164DG      C1 3750   1.493   0.365   3.499 -0.1122  0.1128 -0.5874
  164DG      C2 3751   1.723  -0.226   3.132 -0.7044 -0.1135 -0.0752
  164DG      H3 3752   1.406   0.297   3.513  0.9273  1.3604  0.9796
  164DG      H4 3753   1.469   0.470   3.465 -0.3981  0.3683  0.1255
  164DG      H5 3754   1.550   0.363   3.590  1.2698 -0.6533 -0.1672
  164DG      H6 3755   1.772  -0.298   3.202  0.8031  1.4735 -1.2391
  164DG      H7 3756   1.618  -0.252   3.131 -0.1168  1.8838 -1.3825
  164DG      H8 3757   1.772  -0.259   3.039  1.5032 -1.5068 -0.7755
  164DG      O9 3758   1.564   0.299   3.395 -0.0590  0.2536 -0.3766
  164DG     O10 3759   1.728  -0.090   3.173  0.3444  0.0015 -0.3932
  164DG     C11 3760   1.686   0.376   3.371 -0.0024  0.4472 -0.2274
  164DG     C12 3761   1.864  -0.036   3.191  0.0812 -0.0583  0.7399
  164DG     H13 3762   1.750   0.396   3.456 -0.3599  1.5856  0.4592
  164DG     H14 3763   1.666   0.472   3.327  0.2114  0.2377 -1.9669
  164DG     H15 3764   1.937  -0.082   3.123  1.5292  1.0276 -2.5160
  164DG     H16 3765   1.894  -0.061   3.297 -0.7525  0.9836 -0.4957
  164DG     C17 3766   1.743   0.304   3.254  0.0442  0.5105 -0.2045
  164DG     C18 3767   1.862   0.111   3.172  0.0717  0.8029  0.2809
  164DG     O19 3768   1.776   0.169   3.272  0.3151  0.3373 -0.4323
  164DG     H20 3769   1.833   0.351   3.226 -0.7591 -1.4071 -1.5402
  164DG     H21 3770   1.680   0.322   3.162 -2.9178 -1.2561 -1.4102
  164DG     H22 3771   1.958   0.167   3.175  1.5378  3.8194 -1.2833
  164DG     H23 3772   1.820   0.119   3.068 -0.1719 -0.2964 -1.5163
  165DG      C1 3773   2.621   4.030   4.739  0.2866 -0.1115  1.0537
  165DG      C2 3774   2.340   4.622   4.445  0.5399  0.5032 -0.1811
  165DG      H3 3775   2.585   3.967   4.818  1.3373 -0.2529 -0.5253
  165DG      H4 3776   2.728   4.039   4.736 -1.2317 -0.0483  1.1625
  165DG      H5 3777   2.589   3.978   4.648 -0.2545  0.6517  0.4014
  165DG      H6 3778   2.424   4.641   4.378  0.9393 -2.2147 -0.9194
  165DG      H7 3779   2.272   4.568   4.377  1.9982 -0.0298 -2.4122
  165DG      H8 3780   2.286   4.721   4.473  1.9869  0.4594  1.5908
  165DG      O9 3781   2.564   4.154   4.745  0.3589  0.0979 -0.1507
  165DG     O10 3782   2.378   4.544   4.558  0.4818  0.5568 -0.0708
  165DG     C11 3783   2.585   4.211   4.880 -0.5884 -0.4351 -0.3449
  165DG     C12 3784   2.448   4.613   4.653 -0.2462 -0.0738  0.1933
  165DG     H13 3785   2.694   4.233   4.897  0.7134 -0.1309 -0.9353
  165DG     H14 3786   2.540   4.139   4.949  1.2676  0.1332 -3.2226
  165DG     H15 3787   2.391   4.700   4.673  1.5500  0.7926  3.0023
  165DG     H16 3788   2.551   4.630   4.618  3.2845  1.9026  2.6835
  165DG     C17 3789   2.506   4.337   4.886  0.1156  0.4596 -0.0235
  165DG     C18 3790   2.446   4.541   4.788  0.5818 -1.0449 -0.6222
  165DG     O19 3791   2.512   4.414   4.772  0.4637  0.1098  0.2041
  165DG     H20 3792   2.559   4.384   4.962 -0.8557 -4.2023  1.2499
  165DG     H21 3793   2.402   4.308   4.908  1.8966  3.5397  0.3308
  165DG     H22 3794   2.504   4.588   4.876  2.2970  0.4312 -0.2668
  165DG     H23 3795   2.344   4.525   4.814  1.9219  0.4672 -0.4034
  166DG      C1 3796   1.549   4.705   4.647 -0.6352 -0.0928  0.2691
  166DG      C2 3797   1.079   4.250   4.641 -0.5028  0.2105  0.7057
  166DG      H3 3798   1.490   4.780   4.596  0.5097  0.5705  1.5625
  166DG      H4 3799   1.653   4.751   4.659  0.7317  0.0473 -1.6202
  166DG      H5 3800   1.516   4.680   4.746  1.3759  1.0220 -1.0490
  166DG      H6 3801   1.075   4.158   4.708 -2.0275 -0.9130 -0.6626
  166DG      H7 3802   1.025   4.337   4.690  2.4001 -1.0647  0.8987
  166DG      H8 3803   1.026   4.227   4.554  0.5977 -0.8144  1.3937
  166DG      O9 3804   1.548   4.598   4.556  0.0927  0.1491 -0.2743
  166DG     O10 3805   1.210   4.286   4.611 -0.4240 -0.0920  0.4390
  166DG     C11 3806   1.648   4.502   4.590 -0.7061 -0.5836  0.1467
  166DG     C12 3807   1.288   4.183   4.552 -0.3393 -0.2123  0.2502
  166DG     H13 3808   1.660   4.493   4.696 -0.6859 -0.5496  0.0896
  166DG     H14 3809   1.741   4.533   4.553  1.0390 -0.0812  0.9191
  166DG     H15 3810   1.240   4.136   4.465  0.2484  1.5819  0.0108
  166DG     H16 3811   1.320   4.108   4.623 -0.6519  0.9586 -1.4379
  166DG     C17 3812   1.608   4.377   4.521 -0.2031 -0.3533  0.0118
  166DG     C18 3813   1.409   4.247   4.487 -0.6167 -0.5893 -0.5073
  166DG     O19 3814   1.486   4.320   4.578  0.6181  0.1332  0.3410
  166DG     H20 3815   1.689   4.306   4.515  0.3189 -2.2611  0.6971
  166DG     H21 3816   1.589   4.405   4.416  2.1341  0.4098 -2.7288
  166DG     H22 3817   1.470   4.166   4.439  1.6328 -1.3128 -0.3513
  166DG     H23 3818   1.370   4.318   4.420 -1.0764 -2.1502  1.7120
  167DG      C1 3819   5.112   1.441   3.505  0.0548 -0.5538  0.3909
  167DG      C2 3820   5.630   1.045   3.777  0.3955 -0.7409 -0.5513
  167DG      H3 3821   5.062   1.357   3.460 -0.7523 -1.6796  1.8828
  167DG      H4 3822   5.088   1.531   3.450 -1.2219 -0.9635 -0.8477
  167DG      H5 3823   5.076   1.447   3.604  1.3839 -0.9681 -2.6457
  167DG      H6 3824   5.591   1.066   3.872 -0.8193 -0.1266 -2.0062
  167DG      H7 3825   5.585   0.954   3.749  0.0733 -0.7991  2.8894
  167DG      H8 3826   5.739   1.027   3.801  1.0505 -0.5090  2.1148
  167DG      O9 3827   5.257   1.417   3.508  0.6772 -0.2615  0.0693
  167DG     O10 3828   5.611   1.160   3.697  0.2363  0.0088 -0.5848
  167DG     C11 3829   5.318   1.403   3.377 -0.0687  0.2794 -0.0158
  167DG     C12 3830   5.660   1.125   3.572 -0.1153 -0.1889  0.0004
  167DG     H13 3831   5.290   1.497   3.324 -1.7000  0.7258  0.4000
  167DG     H14 3832   5.258   1.324   3.323 -2.1003 -2.0406 -0.8556
  167DG     H15 3833   5.608   1.043   3.538 -0.0839 -1.4970 -1.0084
  167DG     H16 3834   5.767   1.107   3.595  2.5765  1.3355  0.0504
  167DG     C17 3835   5.467   1.380   3.384  0.5706  0.9111 -0.0086
  167DG     C18 3836   5.638   1.244   3.469  0.3530 -0.3482  0.4344
  167DG     O19 3837   5.497   1.263   3.462 -0.3803  0.4181  0.1598
  167DG     H20 3838   5.526   1.463   3.419  0.9491  1.2235 -3.9494
  167DG     H21 3839   5.502   1.361   3.282  0.7615 -0.0232  2.1515
  167DG     H22 3840   5.692   1.336   3.501  2.7182  1.0995  0.8554
  167DG     H23 3841   5.667   1.212   3.368  0.7022 -1.5346 -0.0845
  168DG      C1 3842   2.746   2.337   1.576 -0.7044 -0.0984  0.8888
  168DG      C2 3843   3.193   2.795   1.586  0.7133 -0.1216 -0.9675
  168DG      H3 3844   2.788   2.312   1.479 -0.2155 -0.7587 -0.5530
  168DG      H4 3845   2.672   2.416   1.564  0.2892 -0.6370 -1.2547
  168DG      H5 3846   2.684   2.263   1.612  0.6045  1.0414  0.5260
  168DG      H6 3847   3.290   2.845   1.605  2.7939 -0.3564 -2.0405
  168DG      H7 3848   3.201   2.765   1.485  0.9493  1.1894  0.0258
  168DG      H8 3849   3.122   2.876   1.594 -0.6203 -1.6270  0.3771
  168DG      O9 3850   2.839   2.381   1.673  0.0817  0.2217 -0.7044
  168DG     O10 3851   3.171   2.691   1.676  0.4454 -0.3010  0.0787
  168DG     C11 3852   2.931   2.276   1.694  0.2873 -0.0720  0.2206
  168DG     C12 3853   3.278   2.597   1.676 -0.5111 -0.4825  0.5087
  168DG     H13 3854   2.972   2.251   1.600  2.1930  0.1811  0.1925
  168DG     H14 3855   2.889   2.180   1.731 -0.0919 -1.8161  0.7430
  168DG     H15 3856   3.370   2.658   1.699  0.1829  1.9855  0.5991
  168DG     H16 3857   3.279   2.566   1.567  0.0624 -0.3145  0.0080
  168DG     C17 3858   3.040   2.328   1.790  0.6799  0.6578 -0.3042
  168DG     C18 3859   3.233   2.472   1.760 -0.0462  0.2131  0.5807
  168DG     O19 3860   3.094   2.447   1.735 -0.2080 -0.3852  0.2093
  168DG     H20 3861   3.116   2.251   1.811  0.5681 -1.1386  3.3635
  168DG     H21 3862   2.995   2.355   1.882  1.4010 -2.3989 -1.4966
  168DG     H22 3863   3.288   2.385   1.733  1.0632  5.1534 -0.6433
  168DG     H23 3864   3.230   2.492   1.871 -0.6893 -1.0796  3.3425
  169DG      C1 3865   3.538   1.091   4.294 -0.2862  0.1961  0.6939
  169DG      C2 3866   2.994   0.860   4.533 -0.1627  0.0675 -0.1092
  169DG      H3 3867   3.469   1.097   4.208 -0.5036  1.7904  1.2617
  169DG      H4 3868   3.592   0.999   4.276  3.6791 -1.6747 -0.1696
  169DG      H5 3869   3.603   1.176   4.286  1.8055 -1.7990  1.0768
  169DG      H6 3870   2.937   0.917   4.457  1.9207  0.5675  0.7156
  169DG      H7 3871   3.040   0.764   4.503  0.7789 -1.6239 -0.3622
  169DG      H8 3872   2.917   0.847   4.609  0.4170 -0.8177 -1.1339
  169DG      O9 3873   3.468   1.085   4.414  0.2956 -0.7004  0.3580
  169DG     O10 3874   3.103   0.938   4.589  0.1641 -0.5160 -0.1804
  169DG     C11 3875   3.555   1.113   4.515  0.0294 -0.4433  0.1782
  169DG     C12 3876   3.178   0.879   4.702 -0.1236  0.0532  0.8658
  169DG     H13 3877   3.584   1.213   4.515  0.0432 -1.5092  1.0126
  169DG     H14 3878   3.642   1.057   4.508 -3.9501  1.0350 -2.8408
  169DG     H15 3879   3.219   0.782   4.667  2.0695 -2.7905 -0.6596
  169DG     H16 3880   3.109   0.857   4.784  0.8579  2.4362 -3.2084
  169DG     C17 3881   3.485   1.095   4.653  0.1019 -0.1910  0.9113
  169DG     C18 3882   3.289   0.979   4.752  0.1061 -0.0685 -0.2799
  169DG     O19 3883   3.378   0.999   4.638  0.4201  0.0587 -0.3251
  169DG     H20 3884   3.453   1.191   4.682  0.9326  0.7126  0.4470
  169DG     H21 3885   3.548   1.050   4.728  0.3375  1.9785  3.2101
  169DG     H22 3886   3.247   1.075   4.791 -0.8226  0.4020 -1.9375
  169DG     H23 3887   3.353   0.931   4.818 -0.8666 -0.3432 -0.8814
  170DG      C1 3888   0.370   2.751   0.197 -0.1763  0.1462 -0.0749
  170DG      C2 3889   0.996   2.750   0.318 -0.5626  0.0956  0.1206
  170DG      H3 3890   0.374   2.685   0.290 -1.1251  1.0176 -2.8046
  170DG      H4 3891   0.343   2.698   0.107 -1.0074  2.0096 -0.4507
  170DG      H5 3892   0.280   2.811   0.209  1.3850  0.8028  0.4366
  170DG      H6 3893   1.059   2.774   0.232 -0.0944  1.6054 -2.1873
  170DG      H7 3894   1.046   2.775   0.414 -1.7353  0.4255 -1.4443
  170DG      H8 3895   0.957   2.651   0.326  0.2832 -1.6847 -1.4811
  170DG      O9 3896   0.495   2.817   0.177  0.0404 -0.7511 -0.4012
  170DG     O10 3897   0.878   2.834   0.308  0.0317  0.0597  0.5643
  170DG     C11 3898   0.492   2.911   0.074 -0.0595  0.1476 -0.3135
  170DG     C12 3899   0.894   2.974   0.290 -0.4137  0.0741 -0.0989
  170DG     H13 3900   0.394   2.958   0.057  0.0116  0.1926  2.8529
  170DG     H14 3901   0.527   2.871  -0.022  1.3190  0.8315 -1.6790
  170DG     H15 3902   0.964   2.977   0.205 -2.2894 -2.8222  1.6003
  170DG     H16 3903   0.944   3.017   0.374  0.7204 -0.8872 -1.8136
  170DG     C17 3904   0.587   3.032   0.115  0.5985 -0.2076  0.2516
  170DG     C18 3905   0.766   3.048   0.257 -0.0570  0.4987  0.8303
  170DG     O19 3906   0.688   2.968   0.178  0.0321 -0.2909  0.0854
  170DG     H20 3907   0.534   3.100   0.187  0.3003 -0.1947  0.1767
  170DG     H21 3908   0.617   3.099   0.027  1.9836  1.3489 -2.3711
  170DG     H22 3909   0.718   3.074   0.350 -3.7090  1.5093  2.1952
  170DG     H23 3910   0.792   3.134   0.201 -3.2790  1.8681 -1.7987
  171DG      C1 3911   1.379   3.040   4.528  0.8611  0.0519 -0.2419
  171DG      C2 3912   1.448   2.725   5.128  0.8311 -0.2257  0.1768
  171DG      H3 3913   1.490   3.044   4.527  2.3961 -1.8702 -0.3742
  171DG      H4 3914   1.343   3.075   4.430  2.6549 -2.8739  0.3019
  171DG      H5 3915   1.354   2.928   4.526 -2.1206 -0.2839 -2.3946
  171DG      H6 3916   1.539   2.775   5.093  1.9695  0.1134  1.5759
  171DG      H7 3917   1.445   2.731   5.235  0.4556  3.6759  0.6086
  171DG      H8 3918   1.459   2.624   5.095 -1.8842  1.8164  0.7089
  171DG      O9 3919   1.321   3.106   4.644 -0.1038 -0.3416 -0.2057
  171DG     O10 3920   1.325   2.786   5.069  0.2260 -0.7330  0.2441
  171DG     C11 3921   1.181   3.068   4.663  0.3449  0.4913  0.3478
  171DG     C12 3922   1.329   2.926   5.087  0.4900  0.1625  0.5091
  171DG     H13 3923   1.167   2.962   4.643 -0.0190  1.5656 -1.1541
  171DG     H14 3924   1.119   3.124   4.593 -0.4771  2.8991 -2.1298
  171DG     H15 3925   1.411   2.963   5.028  1.8034 -0.8473  0.5958
  171DG     H16 3926   1.337   2.947   5.189  2.2355  2.1051 -2.2822
  171DG     C17 3927   1.135   3.083   4.813  0.2906  0.5283 -0.1312
  171DG     C18 3928   1.201   2.996   5.033 -0.4338  0.8473  0.0522
  171DG     O19 3929   1.196   2.986   4.891 -0.2218 -0.0952 -0.1587
  171DG     H20 3930   1.032   3.075   4.839  1.3586  1.2066 -0.0034
  171DG     H21 3931   1.169   3.177   4.860  0.7847 -1.1029  0.9412
  171DG     H22 3932   1.114   2.943   5.071  0.1108  0.8195 -0.8892
  171DG     H23 3933   1.209   3.104   5.073 -0.0657 -0.0885 -0.3509
  172DG      C1 3934   3.088   2.071   3.806  0.8591 -0.0883  0.1968
  172DG      C2 3935   3.561   2.571   3.811  0.8570 -0.4785 -0.5027
  172DG      H3 3936   3.027   2.163   3.813 -1.2843  1.1119  0.6043
  172DG      H4 3937   3.040   1.988   3.866 -1.0492  1.8061  0.0748
  172DG      H5 3938   3.080   2.046   3.702 -0.2028  0.0541  1.4736
  172DG      H6 3939   3.500   2.638   3.870  1.6551 -2.1307 -1.8795
  172DG      H7 3940   3.665   2.608   3.815 -0.8957 -0.2059  0.6246
  172DG      H8 3941   3.523   2.573   3.708  3.5016 -0.5192 -0.6813
  172DG      O9 3942   3.225   2.084   3.850 -0.0396 -0.6792 -0.0368
  172DG     O10 3943   3.531   2.439   3.860 -0.3217 -0.3546  0.2658
  172DG     C11 3944   3.238   2.083   3.992  0.3158 -0.1696 -0.3538
  172DG     C12 3945   3.528   2.440   4.004  0.4954 -0.4825  0.5773
  172DG     H13 3946   3.198   1.994   4.042  0.3781 -0.4503 -0.1802
  172DG     H14 3947   3.188   2.171   4.033  0.6147  4.1750  2.4713
  172DG     H15 3948   3.449   2.498   4.048 -1.2693 -0.5523 -0.2254
  172DG     H16 3949   3.620   2.475   4.049  2.5633 -0.8903  0.0753
  172DG     C17 3950   3.386   2.102   4.026 -0.2766  0.5856 -0.2412
  172DG     C18 3951   3.515   2.297   4.058  0.0158  0.4571 -0.6354
  172DG     O19 3952   3.403   2.238   3.996  0.0659  0.0993  0.3228
  172DG     H20 3953   3.463   2.037   3.976  0.5744  1.4533 -1.2612
  172DG     H21 3954   3.400   2.087   4.135  0.5402  1.1797  2.9504
  172DG     H22 3955   3.611   2.246   4.052  0.1288  2.4133 -1.5584
  172DG     H23 3956   3.488   2.294   4.162 -1.5866 -1.5963 -2.0814
  173DG      C1 3957   3.249   4.946   1.771 -0.0766 -0.3463  0.3912
  173DG      C2 3958   3.349   5.523   1.963 -0.2155 -0.3576 -0.4833
  173DG      H3 3959   3.267   4.850   1.808 -2.9754  1.0484 -1.8534
  173DG      H4 3960   3.342   4.972   1.720 -0.7307  1.1933  1.3284
  173DG      H5 3961   3.166   4.932   1.694 -1.5137  0.0058  1.6472
  173DG      H6 3962   3.320   5.623   1.993  1.5699 -0.0365  1.5723
  173DG      H7 3963   3.460   5.523   1.954  0.0497 -0.8176 -1.2521
  173DG      H8 3964   3.307   5.503   1.860 -2.1078  2.4952 -0.5025
  173DG      O9 3965   3.216   5.042   1.871 -0.4161  0.6469  0.6302
  173DG     O10 3966   3.324   5.418   2.060  0.0849  0.1243  0.1006
  173DG     C11 3967   3.099   5.020   1.950  0.4751  0.3038  0.1327
  173DG     C12 3968   3.191   5.420   2.118 -0.7462 -0.3423  0.3692
  173DG     H13 3969   3.110   4.926   2.013  0.5549 -0.9248 -2.8526
  173DG     H14 3970   3.015   5.003   1.885 -2.9203  0.6043  0.2969
  173DG     H15 3971   3.124   5.440   2.037  0.7676 -0.7222  1.2953
  173DG     H16 3972   3.176   5.507   2.181  0.7101  0.5625 -1.4635
  173DG     C17 3973   3.068   5.141   2.035  0.2733 -0.1697 -0.7580
  173DG     C18 3974   3.166   5.288   2.186 -0.3880 -0.3356  0.4812
  173DG     O19 3975   3.190   5.190   2.091  0.7000  0.0912  0.1169
  173DG     H20 3976   3.003   5.108   2.118 -1.6382 -1.0045  2.4398
  173DG     H21 3977   3.022   5.223   1.981 -0.8062  2.9370 -0.5688
  173DG     H22 3978   3.241   5.272   2.267 -1.5831  0.5672 -1.6460
  173DG     H23 3979   3.073   5.282   2.244 -0.0546  0.4900 -1.4501
  174DG      C1 3980   4.465   4.914   2.196  0.1475  0.4667  0.4452
  174DG      C2 3981   4.514   4.295   2.407 -0.2054  0.1250  0.1551
  174DG      H3 3982   4.431   5.013   2.155  0.5734  2.7376 -0.1470
  174DG      H4 3983   4.522   4.879   2.115  0.3798  3.7239 -0.2387
  174DG      H5 3984   4.546   4.931   2.263  0.1812 -0.4864  1.1231
  174DG      H6 3985   4.567   4.356   2.476  0.9968  0.1636  0.5990
  174DG      H7 3986   4.500   4.191   2.443 -2.2976 -0.3060 -0.6103
  174DG      H8 3987   4.584   4.276   2.321  0.8273 -1.9302 -0.5493
  174DG      O9 3988   4.377   4.807   2.217  0.2458  0.4730 -0.6559
  174DG     O10 3989   4.405   4.373   2.365 -0.0670 -0.8630 -0.1894
  174DG     C11 3990   4.296   4.834   2.330  0.7710 -0.4012  0.3354
  174DG     C12 3991   4.313   4.398   2.463 -0.5809  0.1231  0.7567
  174DG     H13 3992   4.241   4.922   2.309  1.5579 -1.2274  0.6310
  174DG     H14 3993   4.353   4.860   2.419  0.8349  0.3322 -1.6742
  174DG     H15 3994   4.356   4.425   2.563  0.7822 -1.7771 -1.0517
  174DG     H16 3995   4.254   4.303   2.490 -1.5381  0.3898 -1.5482
  174DG     C17 3996   4.191   4.720   2.349 -0.1231 -0.3314 -0.2880
  174DG     C18 3997   4.207   4.489   2.411 -0.4154  0.3082 -0.2944
  174DG     O19 3998   4.275   4.608   2.386 -0.3792 -0.0357 -0.2863
  174DG     H20 3999   4.143   4.697   2.257 -2.5090  0.2959 -1.3377
  174DG     H21 4000   4.122   4.748   2.430  1.2332 -2.9126 -0.1226
  174DG     H22 4001   4.164   4.457   2.316  0.0680 -0.0235 -0.6905
  174DG     H23 4002   4.125   4.495   2.483  2.7786 -0.9876 -0.5068
  175DG      C1 4003   1.175   1.446   0.494  0.5228  0.1516  0.3000
  175DG      C2 4004   1.732   1.774   0.706 -0.4299  0.0497  0.2496
  175DG      H3 4005   1.127   1.395   0.409  1.2197  0.8627  2.4605
  175DG      H4 4006   1.113   1.532   0.522 -2.0890  0.6876  1.5940
  175DG      H5 4007   1.179   1.377   0.578 -1.0073 -0.2805  1.2709
  175DG      H6 4008   1.655   1.833   0.758 -0.7175  2.5408 -0.2191
  175DG      H7 4009   1.805   1.740   0.772  0.6574 -2.6881 -2.0567
  175DG      H8 4010   1.780   1.846   0.634  2.1026  0.0505  0.3110
  175DG      O9 4011   1.302   1.488   0.448 -0.4595  0.4561 -0.3023
  175DG     O10 4012   1.657   1.676   0.633 -0.8854  0.3451  0.0449
  175DG     C11 4013   1.384   1.378   0.401  0.2193  0.4314 -0.2914
  175DG     C12 4014   1.748   1.581   0.579  0.1907 -0.1726  0.0403
  175DG     H13 4015   1.322   1.318   0.332 -0.5811 -1.1352 -3.0956
  175DG     H14 4016   1.432   1.320   0.486  1.0635 -1.3936 -0.7838
  175DG     H15 4017   1.808   1.540   0.658 -2.0412 -0.8100 -0.3205
  175DG     H16 4018   1.810   1.631   0.501 -1.3071 -2.1433  1.8399
  175DG     C17 4019   1.501   1.447   0.326  0.3235 -0.3411 -1.3406
  175DG     C18 4020   1.658   1.469   0.511 -0.3131 -0.3087 -0.2595
  175DG     O19 4021   1.580   1.529   0.411  0.0989 -0.2702  0.1847
  175DG     H20 4022   1.468   1.514   0.246  0.3122 -0.1057  0.3173
  175DG     H21 4023   1.567   1.368   0.285 -2.3846  0.2147  3.5531
  175DG     H22 4024   1.722   1.400   0.457  0.2060  0.6544 -0.1461
  175DG     H23 4025   1.597   1.414   0.590 -1.8241 -0.7878  1.3895
  176DG      C1 4026   3.879   3.049   1.571 -0.1449  0.1577 -0.3732
  176DG      C2 4027   4.574   2.957   1.688  0.3191  0.8325  0.0274
  176DG      H3 4028   3.804   3.077   1.652  0.7235  0.8703  0.9514
  176DG      H4 4029   3.872   2.938   1.561  1.6680 -1.8692  0.2566
  176DG      H5 4030   3.849   3.081   1.474 -0.7390  0.9031  0.0499
  176DG      H6 4031   4.511   2.895   1.628 -0.5988 -1.8246 -0.8651
  176DG      H7 4032   4.679   2.962   1.652  2.5057 -0.2101  2.8241
  176DG      H8 4033   4.570   2.908   1.788 -4.0715 -1.2635  0.0772
  176DG      O9 4034   4.019   3.080   1.602 -0.7690 -0.0917 -0.0090
  176DG     O10 4035   4.511   3.076   1.692 -0.6185 -0.8181 -0.4401
  176DG     C11 4036   4.045   3.220   1.620 -0.1756  0.5265  0.0938
  176DG     C12 4037   4.505   3.141   1.570 -0.2759 -0.3894  0.4077
  176DG     H13 4038   4.043   3.236   1.731  2.6715  3.3407  0.0993
  176DG     H14 4039   3.963   3.284   1.585  0.8979 -1.5179  2.6751
  176DG     H15 4040   4.469   3.084   1.489  0.3753  0.3378  3.0617
  176DG     H16 4041   4.610   3.179   1.541 -1.6335  0.9685 -0.1972
  176DG     C17 4042   4.181   3.278   1.575  0.4433 -0.0242  0.2185
  176DG     C18 4043   4.415   3.263   1.578  0.4938 -0.3087 -0.1878
  176DG     O19 4044   4.294   3.202   1.623  0.3174  0.1005 -0.3672
  176DG     H20 4045   4.180   3.378   1.620  3.4166  0.5053 -2.7796
  176DG     H21 4046   4.187   3.288   1.465  1.2105  1.1810  2.0839
  176DG     H22 4047   4.460   3.337   1.646 -0.6185  2.3850  0.5039
  176DG     H23 4048   4.412   3.297   1.478 -1.4869 -1.1169  0.2979
  177DG      C1 4049   2.113   2.721   2.598 -0.1649 -0.0845 -1.2952
  177DG      C2 4050   1.467   2.943   2.083 -0.0826  0.1858  0.1968
  177DG      H3 4051   2.200   2.791   2.597 -1.2066 -0.6971 -0.5866
  177DG      H4 4052   2.130   2.661   2.512  0.1077  2.2345 -0.3547
  177DG      H5 4053   2.116   2.654   2.688 -1.1786 -2.0052  2.5444
  177DG      H6 4054   1.459   2.890   1.987 -1.0399 -2.5646  0.2545
  177DG      H7 4055   1.368   2.970   2.116 -0.6968 -0.6758 -0.5198
  177DG      H8 4056   1.533   3.029   2.060 -3.7100 -1.7368  2.7025
  177DG      O9 4057   1.981   2.795   2.586  0.2017  0.5362  0.4723
  177DG     O10 4058   1.515   2.849   2.182 -0.1655 -0.3789 -0.4637
  177DG     C11 4059   1.870   2.707   2.583  1.2279  0.4078 -0.5687
  177DG     C12 4060   1.579   2.922   2.290  0.1651 -0.1204  0.0426
  177DG     H13 4061   1.877   2.633   2.664 -0.7393 -0.5196  0.2996
  177DG     H14 4062   1.864   2.645   2.497 -0.5248 -1.4378  0.5438
  177DG     H15 4063   1.529   3.011   2.334 -0.6274  3.2202  2.7007
  177DG     H16 4064   1.668   2.956   2.248  3.4294 -0.6969 -1.6672
  177DG     C17 4065   1.742   2.796   2.611 -0.0550 -0.0247 -0.2336
  177DG     C18 4066   1.630   2.818   2.403 -0.0067  0.7541 -0.1917
  177DG     O19 4067   1.704   2.887   2.506 -0.6090 -0.8105  0.2013
  177DG     H20 4068   1.785   2.866   2.687  3.0094  1.5955 -1.1669
  177DG     H21 4069   1.660   2.732   2.647 -1.2742  0.9648  1.7711
  177DG     H22 4070   1.539   2.778   2.446  2.2315 -0.3679  1.7653
  177DG     H23 4071   1.685   2.736   2.357 -0.3201  1.2962 -2.0454
  178DG      C1 4072   1.369   0.220   2.480  0.1527 -0.5723  0.1853
  178DG      C2 4073   2.017   0.180   2.256  0.3027 -0.1750  0.5494
  178DG      H3 4074   1.377   0.181   2.384 -2.2523 -0.2792  0.6305
  178DG      H4 4075   1.299   0.302   2.467 -0.4794 -0.5315 -0.3912
  178DG      H5 4076   1.340   0.131   2.532  0.3727 -0.2602 -0.8180
  178DG      H6 4077   1.983   0.222   2.160 -0.2433 -0.4835  0.4412
  178DG      H7 4078   2.129   0.182   2.265  1.6680 -0.8072 -1.2513
  178DG      H8 4079   1.978   0.076   2.261 -1.4784 -2.2465  0.1513
  178DG      O9 4080   1.494   0.264   2.509  0.5833 -0.5276  0.4495
  178DG     O10 4081   1.946   0.238   2.357  0.4230 -0.3844  0.1181
  178DG     C11 4082   1.527   0.275   2.645 -0.0160 -0.0683  0.0683
  178DG     C12 4083   1.979   0.196   2.489 -0.9281  0.3290 -0.0074
  178DG     H13 4084   1.524   0.186   2.704 -1.0288  1.2451 -0.3899
  178DG     H14 4085   1.457   0.348   2.692 -1.0403  1.9253 -1.9257
  178DG     H15 4086   2.086   0.208   2.510 -1.3191 -0.5749  0.0475
  178DG     H16 4087   1.949   0.090   2.502  1.7030  0.8796  1.8501
  178DG     C17 4088   1.670   0.343   2.656 -0.9528  0.4026 -1.1122
  178DG     C18 4089   1.896   0.287   2.587  0.0241  0.1902  0.3425
  178DG     O19 4090   1.752   0.278   2.561 -0.4880 -0.0956  0.5058
  178DG     H20 4091   1.706   0.335   2.756 -2.2212  0.5194  1.3154
  178DG     H21 4092   1.655   0.446   2.648  1.0421  1.8342 -0.8370
  178DG     H22 4093   1.924   0.269   2.691  0.2675 -2.1821  0.0080
  178DG     H23 4094   1.929   0.389   2.572  2.8188 -0.1664 -0.5433
  179DG      C1 4095   1.264   0.642   2.547  0.3034  0.6328 -0.0774
  179DG      C2 4096   0.877   0.219   3.252  0.6221  0.5041 -0.7455
  179DG      H3 4097   1.364   0.615   2.576 -2.8061  0.6567 -1.1911
  179DG      H4 4098   1.241   0.748   2.574 -1.8299  2.6897  0.5321
  179DG      H5 4099   1.269   0.637   2.441  0.3726 -1.1615 -0.4427
  179DG      H6 4100   0.848   0.127   3.318 -2.2196 -3.5103  3.1706
  179DG      H7 4101   0.833   0.304   3.306 -1.1793 -0.2250 -0.6185
  179DG      H8 4102   0.811   0.216   3.162 -1.3021 -0.1275  1.1907
  179DG      O9 4103   1.172   0.549   2.601 -0.1369 -0.1702  0.0588
  179DG     O10 4104   1.016   0.237   3.233 -0.0694 -0.2284 -0.2532
  179DG     C11 4105   1.173   0.548   2.746  0.0461  0.1673 -0.4627
  179DG     C12 4106   1.040   0.357   3.161  0.2609  0.0503 -0.4917
  179DG     H13 4107   1.132   0.647   2.783  2.8925  0.9873  3.4585
  179DG     H14 4108   1.278   0.540   2.778  2.1848  1.8547  1.7869
  179DG     H15 4109   1.136   0.397   3.194  1.3653 -3.1602 -0.7035
  179DG     H16 4110   0.968   0.434   3.195 -3.0216 -1.3073  0.1768
  179DG     C17 4111   1.095   0.431   2.804 -0.0785 -0.0826 -0.6721
  179DG     C18 4112   1.041   0.328   3.012  0.3609 -0.1007  0.0088
  179DG     O19 4113   1.107   0.440   2.945  0.1939  0.2532 -0.4352
  179DG     H20 4114   1.145   0.341   2.769  0.2746 -0.2799  0.8889
  179DG     H21 4115   0.985   0.436   2.774 -0.6046  1.2381 -1.4929
  179DG     H22 4116   1.095   0.246   2.989  0.5161  2.8592  2.6317
  179DG     H23 4117   0.937   0.322   2.979  0.2959  2.1017 -0.9003
  180DG      C1 4118   2.655   2.476   4.347 -0.9639  0.2140  0.3748
  180DG      C2 4119   2.669   2.752   3.762  0.0533  0.3780 -0.3315
  180DG      H3 4120   2.751   2.510   4.378 -1.0051  0.9885  0.1354
  180DG      H4 4121   2.620   2.387   4.403  1.0185 -1.2479  0.5667
  180DG      H5 4122   2.591   2.563   4.362 -0.3721 -2.1006 -0.7849
  180DG      H6 4123   2.594   2.822   3.788 -0.2194 -0.3641 -0.4432
  180DG      H7 4124   2.756   2.795   3.803 -0.3331  2.7352  0.5418
  180DG      H8 4125   2.680   2.752   3.652 -1.6192 -1.6179 -0.2208
  180DG      O9 4126   2.667   2.441   4.209 -0.1335 -0.2774  0.3521
  180DG     O10 4127   2.659   2.610   3.809 -0.1692 -0.1957  0.1127
  180DG     C11 4128   2.782   2.359   4.173 -0.1392 -0.4116  0.0080
  180DG     C12 4129   2.746   2.519   3.745  0.3041 -0.1965 -0.3825
  180DG     H13 4130   2.800   2.279   4.243 -0.0792  2.5118 -2.7442
  180DG     H14 4131   2.877   2.419   4.165  1.6109  1.6284  1.1480
  180DG     H15 4132   2.846   2.552   3.767 -2.2098  1.6889  2.4657
  180DG     H16 4133   2.729   2.504   3.633  1.1005 -0.5605  1.1299
  180DG     C17 4134   2.769   2.309   4.033  0.7378  0.5547 -0.0177
  180DG     C18 4135   2.739   2.390   3.815  0.1625 -0.0137  0.4222
  180DG     O19 4136   2.746   2.420   3.954  0.3174 -0.2996 -0.0875
  180DG     H20 4137   2.681   2.242   4.017 -0.5375  1.3651  0.3769
  180DG     H21 4138   2.853   2.247   4.002  0.9758  2.7313  0.0550
  180DG     H22 4139   2.641   2.339   3.803 -1.3432 -1.0518  0.9810
  180DG     H23 4140   2.824   2.327   3.782 -1.9586  4.0068  0.1844
  181DG      C1 4141   0.676   5.142   2.612 -0.3158  1.4030  0.3715
  181DG      C2 4142   0.891   5.719   2.492 -0.6474  0.2433 -0.2475
  181DG      H3 4143   0.778   5.141   2.574  1.7671 -0.2189  1.3629
  181DG      H4 4144   0.628   5.047   2.595 -0.5603  0.0801  0.5120
  181DG      H5 4145   0.683   5.149   2.715 -1.5441 -0.0392 -0.2603
  181DG      H6 4146   0.991   5.718   2.437 -0.8259  1.0677 -2.1028
  181DG      H7 4147   0.835   5.807   2.468  1.1359  0.8040 -1.3385
  181DG      H8 4148   0.915   5.728   2.596 -0.4483 -0.5204  0.2315
  181DG      O9 4149   0.602   5.251   2.559  0.0160 -0.2103 -0.6122
  181DG     O10 4150   0.825   5.594   2.461  0.1093 -0.0084  0.0833
  181DG     C11 4151   0.560   5.246   2.427 -0.1508  0.4302  0.1353
  181DG     C12 4152   0.762   5.606   2.332 -0.2388 -0.8468  0.4474
  181DG     H13 4153   0.489   5.158   2.406 -0.4876  0.7293 -2.4482
  181DG     H14 4154   0.642   5.235   2.359 -0.3102 -0.7181  2.8657
  181DG     H15 4155   0.836   5.587   2.256  1.1192 -2.5556  1.2635
  181DG     H16 4156   0.714   5.705   2.323 -2.4702  1.5904 -2.7955
  181DG     C17 4157   0.491   5.379   2.411  0.2368 -0.0200 -0.0070
  181DG     C18 4158   0.653   5.502   2.301  0.2285 -0.9653  0.2840
  181DG     O19 4159   0.574   5.495   2.420 -0.1598  0.5287 -0.0271
  181DG     H20 4160   0.397   5.395   2.471  2.2985 -0.8955 -1.5477
  181DG     H21 4161   0.440   5.375   2.317  1.4840  0.5458 -1.3496
  181DG     H22 4162   0.594   5.538   2.214  0.1874 -0.4660  0.5808
  181DG     H23 4163   0.710   5.416   2.270  0.1764 -0.2136 -0.6955
  182DG      C1 4164   0.641   0.868   1.926  0.7632  0.8574 -0.5186
  182DG      C2 4165   0.739   0.476   1.460  0.8867 -0.3290  0.6179
  182DG      H3 4166   0.661   0.796   2.010  0.7295 -3.1676  2.1973
  182DG      H4 4167   0.535   0.879   1.904 -0.4031 -1.4087 -0.8724
  182DG      H5 4168   0.676   0.962   1.958  2.1515 -0.8725 -1.1844
  182DG      H6 4169   0.694   0.573   1.456  1.0089 -2.5328  1.4756
  182DG      H7 4170   0.765   0.454   1.354  1.2729 -1.5368 -3.5117
  182DG      H8 4171   0.654   0.417   1.485 -0.8569 -0.0906 -0.3950
  182DG      O9 4172   0.711   0.825   1.811 -0.2019 -0.1114 -1.1340
  182DG     O10 4173   0.837   0.461   1.562 -0.2861 -1.1837 -0.1357
  182DG     C11 4174   0.842   0.881   1.809 -0.6114  0.2232 -0.1440
  182DG     C12 4175   0.967   0.505   1.533 -0.3642  0.7327  0.3699
  182DG     H13 4176   0.900   0.846   1.899  1.1561  2.2310  0.8594
  182DG     H14 4177   0.836   0.985   1.804 -1.0362  0.3894  2.2491
  182DG     H15 4178   1.017   0.466   1.446 -0.6903  1.0688 -1.8243
  182DG     H16 4179   1.029   0.464   1.614 -0.2685 -1.4653  0.0217
  182DG     C17 4180   0.912   0.835   1.686 -0.7810 -1.0514 -0.3556
  182DG     C18 4181   0.980   0.660   1.534  0.5304 -0.3359 -0.0202
  182DG     O19 4182   0.915   0.698   1.656  0.2090 -0.1931 -0.1066
  182DG     H20 4183   1.012   0.890   1.669 -0.2753 -1.2209  0.1158
  182DG     H21 4184   0.854   0.881   1.605 -1.9274 -0.1016  0.7489
  182DG     H22 4185   1.084   0.698   1.525  1.6322 -1.6741  1.7254
  182DG     H23 4186   0.935   0.705   1.447  0.6043  1.7243  0.5764
  183DG      C1 4187   3.128   1.991   2.559  1.4439 -0.3754  0.0761
  183DG      C2 4188   2.427   1.509   2.928  0.7288  0.4565  0.3963
  183DG      H3 4189   3.188   2.062   2.607  0.1674  0.9214 -2.7765
  183DG      H4 4190   3.028   2.040   2.536  0.0440  1.7301 -0.7008
  183DG      H5 4191   3.185   1.988   2.469  1.1403  1.4162 -0.2831
  183DG      H6 4192   2.396   1.497   2.829 -3.6985  1.2889 -2.9816
  183DG      H7 4193   2.403   1.424   2.977  0.5213  2.5789  0.5440
  183DG      H8 4194   2.374   1.591   2.972  1.4713 -2.5321  2.7834
  183DG      O9 4195   3.110   1.859   2.626  0.2959 -0.0628  0.1316
  183DG     O10 4196   2.571   1.510   2.942  0.2943  0.4063 -0.4225
  183DG     C11 4197   2.990   1.853   2.706 -0.0168  0.0426 -0.1828
  183DG     C12 4198   2.636   1.636   2.917  0.5659 -0.5987 -0.2006
  183DG     H13 4199   2.904   1.879   2.650  1.1844  2.7441 -1.0146
  183DG     H14 4200   2.989   1.921   2.791 -1.7615  0.5285 -0.3468
  183DG     H15 4201   2.651   1.687   3.006 -0.7696  1.7699 -0.2704
  183DG     H16 4202   2.562   1.701   2.861  1.1891  0.3383 -1.0057
  183DG     C17 4203   2.956   1.718   2.763  0.9937  0.2494  0.6704
  183DG     C18 4204   2.763   1.609   2.851 -0.2140 -0.0847 -0.1977
  183DG     O19 4205   2.828   1.732   2.823 -0.5377 -0.3616 -0.4754
  183DG     H20 4206   3.028   1.672   2.839 -1.1766  0.1989  1.5487
  183DG     H21 4207   2.948   1.649   2.677 -3.7075  0.5116 -2.0502
  183DG     H22 4208   2.820   1.541   2.911 -0.5758 -0.3248 -2.0975
  183DG     H23 4209   2.748   1.571   2.754 -1.0344 -1.4596  0.2560
  184DG      C1 4210   0.991   5.474   1.480 -0.8103 -0.3563  0.2873
  184DG      C2 4211   0.790   4.986   1.051  0.2781  0.6090  0.3630
  184DG      H3 4212   1.053   5.508   1.402  0.8723 -0.4477 -0.0946
  184DG      H4 4213   0.990   5.370   1.486  0.9706  2.1287  1.6702
  184DG      H5 4214   1.036   5.500   1.571  0.4591  0.2871 -0.5165
  184DG      H6 4215   0.730   4.892   1.059 -0.4869  0.5247  0.5855
  184DG      H7 4216   0.736   5.053   0.983 -0.7013 -1.0622 -0.0052
  184DG      H8 4217   0.866   4.946   0.993  0.3420 -2.5731 -2.2772
  184DG      O9 4218   0.865   5.532   1.469  0.0012  0.3581 -0.0129
  184DG     O10 4219   0.814   5.050   1.174 -0.8072 -0.0074 -0.1232
  184DG     C11 4220   0.797   5.487   1.349 -0.4029  0.6477 -0.0536
  184DG     C12 4221   0.690   5.068   1.245  0.2656 -0.4953  0.1474
  184DG     H13 4222   0.858   5.472   1.261  0.1916 -0.8810 -1.3182
  184DG     H14 4223   0.730   5.557   1.298 -1.1367  1.0791 -0.8610
  184DG     H15 4224   0.643   4.972   1.252  2.4986  0.0557 -0.1974
  184DG     H16 4225   0.617   5.127   1.182  0.5101 -0.0069 -1.1790
  184DG     C17 4226   0.715   5.356   1.372 -0.0104 -0.2345 -0.2014
  184DG     C18 4227   0.725   5.127   1.385 -0.4306  0.5668  0.9016
  184DG     O19 4228   0.796   5.242   1.376 -0.0706 -0.6384  0.2506
  184DG     H20 4229   0.640   5.348   1.293 -3.8074  0.8279 -0.4088
  184DG     H21 4230   0.668   5.365   1.477  1.2259  4.7631  0.3626
  184DG     H22 4231   0.639   5.143   1.443  0.7149 -1.0062 -1.7161
  184DG     H23 4232   0.784   5.058   1.440 -0.5177  1.0812  0.0822
  185DG      C1 4233   3.794   2.839   0.847 -0.4835  0.0758  0.2364
  185DG      C2 4234   3.227   2.728   0.913  0.9581  0.0879 -0.0710
  185DG      H3 4235   3.798   2.727   0.846 -1.7733 -0.1548 -0.9142
  185DG      H4 4236   3.726   2.872   0.926 -1.2183  1.4464 -3.4564
  185DG      H5 4237   3.898   2.878   0.872  0.6941 -1.6859  0.5414
  185DG      H6 4238   3.235   2.646   0.843 -1.4743 -1.8345  2.3392
  185DG      H7 4239   3.273   2.696   1.001  1.0894  2.6695 -1.4555
  185DG      H8 4240   3.122   2.757   0.924  2.7376 -1.5773 -0.3906
  185DG      O9 4241   3.747   2.871   0.715  0.5323 -0.0158 -0.2625
  185DG     O10 4242   3.289   2.838   0.854  0.2078  0.6541 -0.0214
  185DG     C11 4243   3.711   3.008   0.692  0.2560 -0.2850 -0.0600
  185DG     C12 4244   3.284   2.954   0.933  0.6945 -0.0844  0.0244
  185DG     H13 4245   3.677   3.021   0.595 -0.6152  0.3866  0.0044
  185DG     H14 4246   3.806   3.063   0.693 -1.7235  0.3980 -2.2104
  185DG     H15 4247   3.304   2.943   1.033 -0.5346  1.0825 -0.9557
  185DG     H16 4248   3.173   2.986   0.932 -0.0547  1.7919  0.3629
  185DG     C17 4249   3.604   3.074   0.783 -1.0108 -0.0163 -0.0163
  185DG     C18 4250   3.387   3.045   0.859  0.8811 -0.2923  0.0578
  185DG     O19 4251   3.509   2.978   0.821 -0.2769 -0.1796 -0.0199
  185DG     H20 4252   3.563   3.160   0.730  0.7942 -0.6716 -1.4537
  185DG     H21 4253   3.644   3.117   0.879 -2.8818  0.0126 -0.3763
  185DG     H22 4254   3.332   3.099   0.776  0.4433  2.1264  0.6972
  185DG     H23 4255   3.407   3.119   0.931 -2.2162 -0.8997  1.5072
  186DG      C1 4256   3.800   2.272   2.484 -0.9737  0.1025 -0.5154
  186DG      C2 4257   3.582   2.097   2.835 -0.9968 -0.7837  0.2256
  186DG      H3 4258   3.838   2.312   2.582  0.7131  0.4804 -0.9626
  186DG      H4 4259   3.701   2.317   2.469  1.2604  0.0407  1.4771
  186DG      H5 4260   3.866   2.292   2.404 -2.0196  1.4591  0.1328
  186DG      H6 4261   3.549   2.152   2.744  2.4620 -1.0118 -1.8696
  186DG      H7 4262   3.515   2.111   2.925 -0.9883 -1.6017  0.8731
  186DG      H8 4263   3.674   2.151   2.868 -0.7800 -2.5091 -0.7275
  186DG      O9 4264   3.773   2.132   2.493  0.3907 -0.0006 -0.1593
  186DG     O10 4265   3.607   1.958   2.816  0.2111 -0.0697 -0.0424
  186DG     C11 4266   3.681   2.085   2.398  0.1688  0.2716 -0.3530
  186DG     C12 4267   3.505   1.882   2.751  0.0166 -0.3799 -0.1745
  186DG     H13 4268   3.712   2.108   2.294 -1.6161 -0.3139  0.9385
  186DG     H14 4269   3.588   2.135   2.409  1.4245 -1.9781  0.2095
  186DG     H15 4270   3.400   1.905   2.789 -2.2523 -0.6981  0.7866
  186DG     H16 4271   3.524   1.777   2.783  0.5985  0.6044 -0.2105
  186DG     C17 4272   3.644   1.936   2.407 -0.3675  0.1079 -0.0360
  186DG     C18 4273   3.508   1.911   2.598 -0.8986 -0.3165  0.2124
  186DG     O19 4274   3.639   1.893   2.544  0.3271  0.0331  0.2389
  186DG     H20 4275   3.723   1.880   2.355  0.6406 -0.7780  1.6811
  186DG     H21 4276   3.559   1.909   2.343 -0.8193 -2.2716  0.1826
  186DG     H22 4277   3.439   1.850   2.535  1.2361 -1.2247  1.6596
  186DG     H23 4278   3.484   2.019   2.571 -2.0882  0.6287  1.0239
  187DG      C1 4279   0.015   0.778   0.138  0.4516 -0.4781  0.4303
  187DG      C2 4280   0.156   0.709   0.900 -0.4866 -0.4654 -0.1551
  187DG      H3 4281  -0.081   0.789   0.077 -0.1900  2.1821 -2.1289
  187DG      H4 4282   0.088   0.717   0.077  0.9673  1.2029  0.1141
  187DG      H5 4283   0.055   0.879   0.149  2.0703 -0.0391 -2.0121
  187DG      H6 4284   0.146   0.605   0.947  0.8785  0.5247  1.5958
  187DG      H7 4285   0.257   0.745   0.867 -0.5121  1.7305 -0.7299
  187DG      H8 4286   0.111   0.786   0.965  0.0009 -2.2727 -0.0159
  187DG      O9 4287  -0.023   0.727   0.267  0.3185  0.5334  0.1080
  187DG     O10 4288   0.092   0.722   0.775  0.2992  0.0444 -0.6563
  187DG     C11 4289  -0.125   0.797   0.332 -0.4531  0.6144 -0.4448
  187DG     C12 4290   0.062   0.605   0.700  0.2635  0.6541  0.1733
  187DG     H13 4291  -0.205   0.814   0.260  1.2466  0.8876  2.0269
  187DG     H14 4292  -0.091   0.896   0.367  0.2384  2.8427  1.2593
  187DG     H15 4293  -0.021   0.553   0.753 -1.3519 -1.7316  2.5868
  187DG     H16 4294   0.147   0.543   0.693 -0.9987  1.2337  0.2622
  187DG     C17 4295  -0.192   0.712   0.452  0.0353 -0.5776  0.5387
  187DG     C18 4296   0.013   0.633   0.557  0.6045  0.4223  0.6857
  187DG     O19 4297  -0.113   0.713   0.566 -0.2896 -0.0061  0.4528
  187DG     H20 4298  -0.215   0.608   0.412  1.6640 -0.4060 -0.8261
  187DG     H21 4299  -0.286   0.764   0.483 -1.3367  1.2772 -0.8614
  187DG     H22 4300   0.081   0.678   0.491  0.0122 -0.0644 -1.0534
  187DG     H23 4301  -0.007   0.532   0.515 -0.0404 -1.6998 -1.5641
  188DG      C1 4302   3.054   1.458   3.214 -0.2322  0.0435 -0.1299
  188DG      C2 4303   3.059   0.844   3.535  0.0074 -0.2713 -0.0990
  188DG      H3 4304   3.095   1.498   3.305  0.1719 -1.6834 -1.6388
  188DG      H4 4305   3.006   1.537   3.156  1.7322  1.5957 -2.0629
  188DG      H5 4306   3.148   1.432   3.167 -0.3823 -0.5470  0.2966
  188DG      H6 4307   3.158   0.887   3.559  2.6126 -0.2934 -2.8994
  188DG      H7 4308   2.994   0.840   3.621  0.8757 -1.5659 -1.1209
  188DG      H8 4309   3.065   0.748   3.490 -1.2608 -1.9572 -0.3312
  188DG      O9 4310   2.985   1.347   3.248  0.0314  0.3972 -0.0975
  188DG     O10 4311   3.000   0.943   3.447  0.2289  0.2672 -0.5547
  188DG     C11 4312   2.888   1.312   3.146 -0.0424 -0.1712  0.1052
  188DG     C12 4313   2.875   0.901   3.393 -0.4817  0.4598 -0.7045
  188DG     H13 4314   2.942   1.267   3.065  0.9533  1.9740  0.9122
  188DG     H14 4315   2.839   1.402   3.106 -1.9235  1.0563 -0.8665
  188DG     H15 4316   2.820   0.861   3.475  0.6547 -1.3329  1.3177
  188DG     H16 4317   2.882   0.833   3.312  0.1130 -0.4561 -0.8518
  188DG     C17 4318   2.792   1.215   3.215 -0.5322  0.1427 -0.0898
  188DG     C18 4319   2.798   1.031   3.359  0.7973 -0.4380 -0.2032
  188DG     O19 4320   2.877   1.111   3.271  0.0254 -0.1740 -0.6563
  188DG     H20 4321   2.724   1.163   3.149  0.0015 -0.1397 -1.1237
  188DG     H21 4322   2.735   1.268   3.292 -0.1336  2.9042  0.0402
  188DG     H22 4323   2.707   0.996   3.302  0.2540 -0.5321 -2.5606
  188DG     H23 4324   2.770   1.091   3.445  0.8018  2.8769  1.0669
  189DG      C1 4325   3.530   1.814   5.121  0.4080 -0.5718 -0.9055
  189DG      C2 4326   3.192   2.344   4.892 -0.1313 -0.4469  0.0451
  189DG      H3 4327   3.613   1.767   5.169 -1.2438  0.8369  0.8347
  189DG      H4 4328   3.489   1.734   5.060 -0.5919 -0.4954 -0.9486
  189DG      H5 4329   3.448   1.831   5.182  2.0969  0.3965 -0.6761
  189DG      H6 4330   3.230   2.445   4.904 -2.2259 -0.1738  1.4922
  189DG      H7 4331   3.119   2.337   4.809 -2.1603  1.2440 -2.4380
  189DG      H8 4332   3.134   2.325   4.981 -2.1957  1.5316 -0.5110
  189DG      O9 4333   3.559   1.929   5.050 -0.1899  0.3768  0.5490
  189DG     O10 4334   3.309   2.262   4.877  0.4031 -0.5873  0.6922
  189DG     C11 4335   3.653   1.912   4.942  0.7610  0.8058 -0.5087
  189DG     C12 4336   3.404   2.313   4.784 -0.1497  0.1597 -0.0634
  189DG     H13 4337   3.603   1.840   4.879  1.7606  2.6684 -2.5771
  189DG     H14 4338   3.754   1.869   4.975  1.3527 -2.2453  1.8018
  189DG     H15 4339   3.431   2.414   4.813  1.1262  1.6391  1.4673
  189DG     H16 4340   3.358   2.320   4.684  0.5560 -1.2580  0.2617
  189DG     C17 4341   3.657   2.045   4.859 -0.2298 -0.3494  0.3473
  189DG     C18 4342   3.526   2.224   4.770  0.2492 -0.0470  0.1563
  189DG     O19 4343   3.531   2.116   4.860 -0.4177  0.4407  0.1597
  189DG     H20 4344   3.683   2.023   4.755  0.1118 -2.4932  1.1012
  189DG     H21 4345   3.738   2.111   4.892 -0.0700 -0.4861 -1.1847
  189DG     H22 4346   3.537   2.186   4.670 -1.2181 -1.7328  1.7164
  189DG     H23 4347   3.609   2.296   4.783  1.5017 -0.9743  0.5561
  190DG      C1 4348   3.731   3.980   4.880 -0.4167  0.7535  0.1161
  190DG      C2 4349   3.474   4.426   5.427 -0.0550  0.0246 -0.2714
  190DG      H3 4350   3.705   3.994   4.772 -0.5781 -0.9584 -1.9646
  190DG      H4 4351   3.724   3.874   4.888  0.1733  1.4266  1.8080
  190DG      H5 4352   3.830   4.024   4.899 -0.1017  0.2806 -2.4980
  190DG      H6 4353   3.388   4.453   5.486 -3.7150 -0.3534 -2.6384
  190DG      H7 4354   3.516   4.346   5.480 -1.2920 -1.1707 -3.0563
  190DG      H8 4355   3.537   4.518   5.423  2.6316  1.0375  2.2680
  190DG      O9 4356   3.625   4.031   4.959 -0.0968  0.6415  0.1268
  190DG     O10 4357   3.442   4.372   5.297 -0.6859 -0.0880 -0.3397
  190DG     C11 4358   3.662   4.023   5.097  0.3669  0.3738 -0.1339
  190DG     C12 4359   3.349   4.269   5.304  1.3437  0.3503 -0.2009
  190DG     H13 4360   3.738   4.101   5.102  2.1605 -1.1329  1.7322
  190DG     H14 4361   3.703   3.931   5.138 -0.2418  1.2428  1.0559
  190DG     H15 4362   3.250   4.311   5.328 -0.9991  2.3589  0.8907
  190DG     H16 4363   3.383   4.194   5.385 -0.2840 -0.8163  0.2938
  190DG     C17 4364   3.527   4.048   5.166  0.3179  0.3229 -0.3723
  190DG     C18 4365   3.344   4.202   5.168 -0.3112  0.3296  0.4797
  190DG     O19 4366   3.473   4.172   5.121  0.1268 -0.6020 -0.1011
  190DG     H20 4367   3.536   4.046   5.279  1.2825 -2.0461 -0.4881
  190DG     H21 4368   3.456   3.971   5.139 -0.1999 -0.3962 -1.0935
  190DG     H22 4369   3.280   4.114   5.176 -0.4336 -0.9874 -0.1896
  190DG     H23 4370   3.305   4.284   5.096 -1.7277 -1.0992 -0.5228
  191DG      C1 4371   3.426   0.172   4.701 -0.5204 -0.0141  0.4064
  191DG      C2 4372   3.223  -0.350   5.187 -0.2784 -0.0933 -0.0613
  191DG      H3 4373   3.531   0.175   4.735  1.1468  0.6975  0.6947
  191DG      H4 4374   3.394   0.274   4.690 -0.9650 -2.1971  0.0130
  191DG      H5 4375   3.405   0.117   4.608  2.0667 -2.1305  0.0568
  191DG      H6 4376   3.235  -0.423   5.113 -1.6895  0.1717 -0.6117
  191DG      H7 4377   3.318  -0.362   5.253 -1.6813 -1.7309  1.0520
  191DG      H8 4378   3.141  -0.391   5.248 -2.1973  2.2339 -0.9067
  191DG      O9 4379   3.350   0.113   4.800  0.0826  0.0442 -0.0805
  191DG     O10 4380   3.195  -0.226   5.136  0.1029 -0.0880  0.3759
  191DG     C11 4381   3.216   0.100   4.763 -0.2411  0.2439  0.8228
  191DG     C12 4382   3.066  -0.221   5.072 -0.9933  0.2074 -0.1745
  191DG     H13 4383   3.206   0.025   4.681 -1.0531 -2.7166 -2.2655
  191DG     H14 4384   3.185   0.199   4.719  0.2793 -0.7769 -2.0618
  191DG     H15 4385   2.995  -0.240   5.151  0.5578 -2.0441  1.0854
  191DG     H16 4386   3.052  -0.301   5.003  2.1511  0.3768  4.0421
  191DG     C17 4387   3.122   0.080   4.877  0.1093  0.3768  0.1209
  191DG     C18 4388   3.036  -0.080   5.012  0.4435  0.1754  0.1787
  191DG     O19 4389   3.139  -0.051   4.931 -0.1332  0.2255  0.0179
  191DG     H20 4390   3.030   0.104   4.828  0.7258  0.0950 -0.1016
  191DG     H21 4391   3.121   0.153   4.963 -1.8724  0.8241  0.6976
  191DG     H22 4392   2.946  -0.090   4.951 -0.2249 -0.8074  1.9419
  191DG     H23 4393   3.015   0.000   5.087 -1.9797 -0.3920 -2.3516
  192DG      C1 4394   2.315   4.682   3.477 -0.2113  0.2398 -0.0461
  192DG      C2 4395   2.746   5.348   3.308 -0.6118  0.0905 -0.4435
  192DG      H3 4396   2.220   4.738   3.479 -0.1268  2.3450  0.2723
  192DG      H4 4397   2.305   4.617   3.564 -3.2251  0.3964  0.8309
  192DG      H5 4398   2.324   4.614   3.389  0.7056 -3.7230  0.3817
  192DG      H6 4399   2.706   5.451   3.294 -0.3631 -0.4645 -1.3545
  192DG      H7 4400   2.827   5.370   3.371  0.4623 -0.5552 -0.3420
  192DG      H8 4401   2.793   5.314   3.221 -0.7464 -0.9178 -0.2841
  192DG      O9 4402   2.423   4.772   3.494  0.3994 -0.3595 -0.1032
  192DG     O10 4403   2.657   5.248   3.353  0.8016 -0.4739 -0.2890
  192DG     C11 4404   2.548   4.712   3.489 -0.2055 -0.0028  0.3747
  192DG     C12 4405   2.729   5.130   3.387  0.0777  0.5058 -0.3009
  192DG     H13 4406   2.554   4.693   3.381  0.4688  0.5636  0.0325
  192DG     H14 4407   2.550   4.617   3.542 -1.3032  0.2897  0.2377
  192DG     H15 4408   2.814   5.159   3.443 -0.7125  2.5339  0.1995
  192DG     H16 4409   2.767   5.090   3.289  0.6359  2.1953 -0.9846
  192DG     C17 4410   2.662   4.803   3.543 -0.0988  0.2500  0.2822
  192DG     C18 4411   2.646   5.025   3.469  0.3055  0.9247  0.0272
  192DG     O19 4412   2.705   4.902   3.446  0.9026 -0.0626 -0.7737
  192DG     H20 4413   2.751   4.744   3.568 -0.9560 -0.0062  0.9108
  192DG     H21 4414   2.623   4.839   3.637  1.7364 -1.1615  1.5136
  192DG     H22 4415   2.650   5.049   3.579  0.3396  1.3541  0.3948
  192DG     H23 4416   2.539   5.025   3.447  0.6299  0.2194  0.2750
  193DG      C1 4417   0.244   1.990   2.225 -0.1868  0.0604 -0.4395
  193DG      C2 4418   0.901   1.709   2.098  0.3951  1.1875  0.5503
  193DG      H3 4419   0.200   1.901   2.194 -2.1144  0.6291 -0.1230
  193DG      H4 4420   0.217   2.075   2.159  2.9351  1.1204 -2.2569
  193DG      H5 4421   0.184   2.001   2.315  0.1226  0.1661  0.0639
  193DG      H6 4422   0.854   1.627   2.160  0.0523 -0.7670  2.9141
  193DG      H7 4423   0.865   1.689   1.995  1.8095 -1.3807  0.1366
  193DG      H8 4424   1.009   1.711   2.099 -0.8082  0.8725 -2.2282
  193DG      O9 4425   0.384   1.991   2.242  0.5575  0.1772  0.1187
  193DG     O10 4426   0.842   1.835   2.141 -0.1076  0.4342 -0.2213
  193DG     C11 4427   0.440   2.119   2.254 -0.9180 -0.5366  0.4242
  193DG     C12 4428   0.853   1.849   2.279  0.2716 -0.0161  0.2748
  193DG     H13 4429   0.384   2.182   2.323 -0.6020  2.2657 -0.2682
  193DG     H14 4430   0.437   2.163   2.154  0.1065 -1.1308  1.4194
  193DG     H15 4431   0.960   1.858   2.301 -0.6026 -0.5906 -0.8580
  193DG     H16 4432   0.809   1.763   2.328  0.5754 -0.4000  0.3089
  193DG     C17 4433   0.582   2.108   2.313  0.4657 -0.2424 -0.1671
  193DG     C18 4434   0.784   1.977   2.329 -0.2170 -0.3264 -0.0543
  193DG     O19 4435   0.656   1.992   2.265 -0.5034 -0.0030 -0.2158
  193DG     H20 4436   0.581   2.100   2.425 -2.5526 -0.9091 -0.9903
  193DG     H21 4437   0.646   2.197   2.292 -0.0086  2.0760 -1.4579
  193DG     H22 4438   0.783   1.984   2.442  0.8859 -1.7054  1.3535
  193DG     H23 4439   0.839   2.060   2.295  1.3150 -1.2099  0.6481
  194DG      C1 4440   3.997   1.016   3.405 -0.2311 -0.0825 -0.3606
  194DG      C2 4441   4.206   1.805   3.417  0.0409 -0.0819  0.0262
  194DG      H3 4442   4.024   0.915   3.430 -1.6971 -0.8260 -0.5214
  194DG      H4 4443   3.960   1.007   3.304 -0.1537  1.6321 -0.8998
  194DG      H5 4444   3.921   1.048   3.462  0.5922 -0.4703  0.9252
  194DG      H6 4445   4.139   1.795   3.337  0.4936 -0.7239 -0.9265
  194DG      H7 4446   4.158   1.861   3.498  0.4546  0.7104 -1.1958
  194DG      H8 4447   4.289   1.858   3.377  0.9102  1.4585 -0.7271
  194DG      O9 4448   4.097   1.117   3.400  0.3874 -0.0693 -0.2455
  194DG     O10 4449   4.240   1.674   3.465  0.2232  0.2617  0.1777
  194DG     C11 4450   4.144   1.165   3.524 -0.9198 -0.1960 -0.4072
  194DG     C12 4451   4.328   1.597   3.379  0.9561 -0.4255  0.5669
  194DG     H13 4452   4.182   1.078   3.583 -2.2739 -0.3692  2.9050
  194DG     H14 4453   4.061   1.210   3.576  1.2104 -1.0453 -0.4852
  194DG     H15 4454   4.411   1.654   3.345 -0.3345 -0.3688  1.4210
  194DG     H16 4455   4.267   1.583   3.289 -0.7402 -0.6321 -2.0857
  194DG     C17 4456   4.265   1.257   3.524  0.2476  0.2630 -0.0759
  194DG     C18 4457   4.365   1.464   3.439  0.1481 -0.0585  0.1951
  194DG     O19 4458   4.247   1.381   3.451  0.0121  0.1687 -0.1756
  194DG     H20 4459   4.357   1.205   3.481 -0.2194 -2.3518 -0.6491
  194DG     H21 4460   4.299   1.279   3.632  1.9416  1.0055 -0.1930
  194DG     H22 4461   4.435   1.409   3.378 -0.3445 -0.5046  0.4912
  194DG     H23 4462   4.418   1.467   3.532 -1.7860 -0.1326 -2.0448
  195DG      C1 4463   2.526   0.369   3.817 -0.0733 -0.4038 -0.3571
  195DG      C2 4464   2.820   0.805   4.168  0.1636  0.0002 -0.0980
  195DG      H3 4465   2.538   0.454   3.751  0.4858 -1.0581 -3.7498
  195DG      H4 4466   2.424   0.344   3.799  0.8403  0.4331  0.7959
  195DG      H5 4467   2.588   0.288   3.779 -0.2236 -0.9416 -1.7751
  195DG      H6 4468   2.864   0.712   4.128 -1.7832 -0.2559 -1.0212
  195DG      H7 4469   2.837   0.889   4.102  2.1784  1.2248  2.3458
  195DG      H8 4470   2.875   0.820   4.268 -0.1040 -0.4910 -1.6841
  195DG      O9 4471   2.561   0.413   3.950  0.1182  0.4009  0.6261
  195DG     O10 4472   2.680   0.787   4.194 -0.1099 -0.0525 -0.1852
  195DG     C11 4473   2.581   0.317   4.059 -0.8779  0.3821 -0.1538
  195DG     C12 4474   2.645   0.728   4.315  0.1118  0.0540 -0.1483
  195DG     H13 4475   2.622   0.226   4.023  1.9191  0.4747 -1.8851
  195DG     H14 4476   2.492   0.296   4.109 -0.9550  0.9592  1.3643
  195DG     H15 4477   2.541   0.752   4.334 -1.9892 -2.2231 -1.1199
  195DG     H16 4478   2.713   0.769   4.388  1.5496 -0.6209  0.2823
  195DG     C17 4479   2.669   0.392   4.158 -0.4044  0.4174  0.3635
  195DG     C18 4480   2.666   0.573   4.308  1.5554  0.1528 -0.6173
  195DG     O19 4481   2.603   0.512   4.195 -0.3540  0.0318 -0.0517
  195DG     H20 4482   2.768   0.419   4.114  2.6897 -0.3555 -0.7111
  195DG     H21 4483   2.686   0.331   4.247 -0.7899  0.3678  2.4105
  195DG     H22 4484   2.774   0.558   4.310  0.2617  2.2037 -2.9917
  195DG     H23 4485   2.629   0.527   4.392 -0.5591 -0.1759 -2.6680
  196DG      C1 4486   1.241   1.998   2.084 -0.5271 -0.2382  0.6376
  196DG      C2 4487   1.603   2.572   2.065  0.1449  0.9814  0.5404
  196DG      H3 4488   1.162   2.066   2.065 -1.8003  0.2881 -1.3280
  196DG      H4 4489   1.264   2.002   2.192  1.7520  0.3648  3.0405
  196DG      H5 4490   1.206   1.901   2.053 -0.4459  2.6600  2.0072
  196DG      H6 4491   1.689   2.619   2.007 -2.4454 -3.3595 -1.7039
  196DG      H7 4492   1.510   2.618   2.040 -2.2471 -0.7711  0.5449
  196DG      H8 4493   1.617   2.576   2.170  0.1313  0.1674 -1.6188
  196DG      O9 4494   1.349   2.060   2.011 -0.0134 -0.0025  0.2454
  196DG     O10 4495   1.579   2.433   2.034  0.2552  0.0063 -0.1181
  196DG     C11 4496   1.472   1.993   2.020 -0.3185  0.0888 -0.2055
  196DG     C12 4497   1.704   2.371   2.015  0.9876 -0.2231  0.3897
  196DG     H13 4498   1.441   1.886   2.013 -2.8609 -1.1069  0.6826
  196DG     H14 4499   1.512   2.014   2.119  0.6888  0.6961  1.8230
  196DG     H15 4500   1.772   2.400   2.091  0.0098  1.1094 -0.6853
  196DG     H16 4501   1.734   2.417   1.918  2.1102  0.7298 -0.3527
  196DG     C17 4502   1.557   2.055   1.902 -0.1623 -0.0469 -0.1634
  196DG     C18 4503   1.697   2.224   2.003  0.1334  0.2548 -0.0338
  196DG     O19 4504   1.587   2.193   1.920  0.3591 -0.1886 -0.4984
  196DG     H20 4505   1.493   2.040   1.811  1.1227 -1.1587 -0.6119
  196DG     H21 4506   1.650   1.992   1.872  0.2369 -0.8477 -2.9864
  196DG     H22 4507   1.781   2.168   1.965 -1.4601  1.4606  2.2443
  196DG     H23 4508   1.672   2.183   2.098  2.9765  0.7981 -1.9230
  197DG      C1 4509   0.398   1.412   3.746  0.5833  0.0654  0.1541
  197DG      C2 4510   0.795   1.477   4.279 -0.1410 -0.6425 -0.5959
  197DG      H3 4511   0.371   1.508   3.794 -2.2004 -0.6156 -1.4644
  197DG      H4 4512   0.297   1.362   3.728  0.0902 -1.4852  1.7412
  197DG      H5 4513   0.457   1.420   3.662 -0.9662 -0.4249 -0.8172
  197DG      H6 4514   0.835   1.504   4.182 -2.8678  2.1454  0.0592
  197DG      H7 4515   0.755   1.571   4.310 -0.2289 -1.1740 -0.7420
  197DG      H8 4516   0.869   1.433   4.355  1.0680 -0.4636 -0.6297
  197DG      O9 4517   0.465   1.343   3.847  0.7100 -0.1816 -0.0541
  197DG     O10 4518   0.689   1.387   4.264  0.8736 -0.5423  0.0288
  197DG     C11 4519   0.507   1.217   3.817  0.8584  0.4717 -0.3023
  197DG     C12 4520   0.725   1.249   4.255  0.3934  0.7905 -0.4178
  197DG     H13 4521   0.597   1.222   3.757 -0.3638 -2.9467 -1.3360
  197DG     H14 4522   0.419   1.174   3.756 -2.4954  0.9303  0.6698
  197DG     H15 4523   0.742   1.215   4.360 -0.8753  0.1225  1.4068
  197DG     H16 4524   0.819   1.236   4.198 -1.1220 -1.4428  0.2166
  197DG     C17 4525   0.525   1.131   3.942  0.2862 -0.6883 -0.2739
  197DG     C18 4526   0.618   1.164   4.172  0.1946 -0.6027  0.4119
  197DG     O19 4527   0.599   1.212   4.037  0.5811 -0.2578 -0.1852
  197DG     H20 4528   0.564   1.033   3.918  2.9173  4.0382 -2.3791
  197DG     H21 4529   0.429   1.123   3.996 -0.1540  3.3618 -3.7687
  197DG     H22 4530   0.660   1.063   4.162  1.0850 -2.4455 -0.9451
  197DG     H23 4531   0.523   1.165   4.218  2.3139 -3.1094  1.6170
  198DG      C1 4532   3.577   5.325   2.167  0.5596 -0.2198 -0.9082
  198DG      C2 4533   3.399   4.906   2.154  0.5819  0.1920  0.3957
  198DG      H3 4534   3.503   5.290   2.237 -0.0842  1.1344 -0.0532
  198DG      H4 4535   3.563   5.430   2.127  1.5092  3.4982 -2.9457
  198DG      H5 4536   3.678   5.317   2.206 -0.3549 -0.5603  1.8325
  198DG      H6 4537   3.463   4.861   2.239 -1.5076 -2.2492 -0.7195
  198DG      H7 4538   3.328   4.971   2.215  2.7858 -0.0873 -0.2809
  198DG      H8 4539   3.340   4.830   2.101  0.8748  2.5594 -1.9219
  198DG      O9 4540   3.568   5.251   2.053 -0.0839 -0.7059  0.0173
  198DG     O10 4541   3.485   4.978   2.056  0.1955  0.1826  0.3790
  198DG     C11 4542   3.683   5.270   1.960 -0.5895 -0.0321  0.4958
  198DG     C12 4543   3.557   4.892   1.979  0.5291 -0.4223  0.1305
  198DG     H13 4544   3.768   5.216   2.004  1.1643  0.4942 -0.3205
  198DG     H14 4545   3.706   5.373   1.932  3.4376 -1.2065 -0.5104
  198DG     H15 4546   3.501   4.824   1.915  0.7064  0.3088 -1.2390
  198DG     H16 4547   3.607   4.823   2.045 -0.1181 -0.1913  0.7091
  198DG     C17 4548   3.664   5.197   1.822 -0.3566  0.7892  0.0835
  198DG     C18 4549   3.660   4.971   1.905 -0.4548  0.3536  0.6451
  198DG     O19 4550   3.588   5.075   1.843 -0.2748 -0.0566 -1.0357
  198DG     H20 4551   3.756   5.172   1.765 -0.9333 -2.9450 -0.4306
  198DG     H21 4552   3.610   5.257   1.747 -0.2693 -4.0861  0.9971
  198DG     H22 4553   3.731   5.004   1.980 -1.9263  1.0011  2.1880
  198DG     H23 4554   3.717   4.910   1.836  0.8199  0.2520  1.8075
  199DG      C1 4555   4.304   3.706   4.030 -0.3575 -0.8001  0.0173
  199DG      C2 4556   4.007   3.420   3.587 -0.8045  0.4014 -0.8617
  199DG      H3 4557   4.319   3.726   4.134  0.9166 -0.2775  0.0855
  199DG      H4 4558   4.250   3.785   3.982 -0.4155  1.8191 -3.0672
  199DG      H5 4559   4.400   3.701   3.988  0.4637 -1.8603  1.3906
  199DG      H6 4560   4.005   3.507   3.653  0.5242  0.8647 -0.5482
  199DG      H7 4561   4.108   3.390   3.546  0.9328 -0.8460 -0.9307
  199DG      H8 4562   3.953   3.455   3.509 -1.0568  0.5465  1.0630
  199DG      O9 4563   4.238   3.588   4.005 -0.1284  0.7556  0.3651
  199DG     O10 4564   3.939   3.304   3.633 -0.3299 -1.1446 -0.0923
  199DG     C11 4565   4.101   3.590   4.058  0.1100 -0.6659 -0.7845
  199DG     C12 4566   4.001   3.236   3.742  0.7239 -0.5170 -0.3211
  199DG     H13 4567   4.038   3.666   4.022 -0.5001 -0.0853 -2.5455
  199DG     H14 4568   4.103   3.596   4.162  1.0889 -1.4390 -2.5988
  199DG     H15 4569   4.110   3.233   3.724 -0.7721  1.6105 -0.5025
  199DG     H16 4570   3.970   3.131   3.737  2.9284  1.1288  0.4830
  199DG     C17 4571   4.039   3.451   4.036 -0.1248 -0.0427 -0.1073
  199DG     C18 4572   3.971   3.293   3.882  0.0045  0.4535  0.8177
  199DG     O19 4573   4.043   3.412   3.897  0.0967  0.3189 -0.0125
  199DG     H20 4574   3.929   3.451   4.053  0.2939  1.3699 -1.0138
  199DG     H21 4575   4.091   3.379   4.100 -0.9212 -1.9304  0.2606
  199DG     H22 4576   3.866   3.296   3.906  1.5005 -0.1157  1.8949
  199DG     H23 4577   4.010   3.220   3.953  0.6473  1.8417 -1.6384
  200DG      C1 4578   1.006   0.083   3.719 -0.3778 -0.6396 -0.0641
  200DG      C2 4579   1.257  -0.233   4.486  0.9823 -0.0336  0.5215
  200DG      H3 4580   0.998   0.081   3.609 -0.0353  1.0395 -0.7776
  200DG      H4 4581   1.052   0.182   3.756 -0.9329  2.1132  1.3567
  200DG      H5 4582   0.910   0.071   3.766  0.2793  1.9009 -1.9244
  200DG      H6 4583   1.159  -0.185   4.499 -2.4556  3.4614 -0.6235
  200DG      H7 4584   1.251  -0.333   4.520 -1.6905  0.8747 -2.3637
  200DG      H8 4585   1.334  -0.181   4.542  1.6121  1.0365  1.5779
  200DG      O9 4586   1.088  -0.023   3.767  0.0788  0.2225 -0.1703
  200DG     O10 4587   1.267  -0.229   4.341  0.1249  0.1838 -0.2215
  200DG     C11 4588   1.085  -0.031   3.911 -0.1724  0.2236 -0.3478
  200DG     C12 4589   1.171  -0.320   4.286 -0.4698 -0.8805  0.1515
  200DG     H13 4590   0.991  -0.046   3.955 -1.7472  3.4176 -1.1949
  200DG     H14 4591   1.118   0.064   3.943 -1.3805  1.2639  0.0642
  200DG     H15 4592   1.073  -0.292   4.330  1.7209  1.3978 -1.1442
  200DG     H16 4593   1.180  -0.421   4.320 -0.4125  0.1812  1.2307
  200DG     C17 4594   1.162  -0.162   3.948  1.4172  0.6330  0.0375
  200DG     C18 4595   1.193  -0.321   4.132 -0.2143  0.0232  0.1679
  200DG     O19 4596   1.150  -0.191   4.087 -0.6091  0.2148 -0.0668
  200DG     H20 4597   1.261  -0.152   3.912 -0.9030 -0.8686 -1.7512
  200DG     H21 4598   1.116  -0.240   3.897 -1.9527  0.7836  2.3179
  200DG     H22 4599   1.302  -0.342   4.113 -1.8810 -1.1879  0.2055
  200DG     H23 4600   1.128  -0.397   4.081  1.3328 -0.0761  0.0701
  201DG      C1 4601   0.887   0.568   2.082  0.0219 -0.1852 -0.2754
  201DG      C2 4602   0.521   0.766   1.589 -0.1474 -0.6911  0.3041
  201DG      H3 4603   0.949   0.621   2.014 -0.8310  1.8508  0.4189
  201DG      H4 4604   0.929   0.472   2.100  0.9320 -0.1845  0.1674
  201DG      H5 4605   0.866   0.625   2.175 -1.8983 -0.1305 -0.1814
  201DG      H6 4606   0.614   0.805   1.563  2.0635 -0.2424 -0.8918
  201DG      H7 4607   0.447   0.759   1.509 -2.9683 -0.6660  3.1472
  201DG      H8 4608   0.474   0.835   1.666  1.2844  0.2111 -0.4039
  201DG      O9 4609   0.767   0.544   2.017 -0.2874 -0.2049  0.2997
  201DG     O10 4610   0.546   0.637   1.639  0.2362 -0.2388 -0.0953
  201DG     C11 4611   0.661   0.489   2.094 -0.4318  0.0385 -0.2681
  201DG     C12 4612   0.430   0.571   1.685  0.3141 -0.6443  0.0240
  201DG     H13 4613   0.669   0.525   2.196  0.9716  0.0187 -2.1635
  201DG     H14 4614   0.674   0.380   2.076  1.7017 -0.1397 -0.6739
  201DG     H15 4615   0.451   0.470   1.660  2.2486 -1.6061  0.7673
  201DG     H16 4616   0.344   0.601   1.631 -0.8468  0.7138 -1.5127
  201DG     C17 4617   0.528   0.537   2.041 -0.0109 -0.2244 -0.5374
  201DG     C18 4618   0.423   0.586   1.837 -0.5035 -0.3613 -0.1120
  201DG     O19 4619   0.538   0.532   1.903 -0.0920  0.2368  0.7857
  201DG     H20 4620   0.505   0.642   2.069 -1.2377 -2.4543  0.3149
  201DG     H21 4621   0.447   0.477   2.091  1.4179 -2.2736  0.3906
  201DG     H22 4622   0.400   0.696   1.857  4.1781  1.8690  0.4322
  201DG     H23 4623   0.336   0.535   1.874 -0.2239  0.1376  2.0983
  202DG      C1 4624   2.827   3.404   4.707  0.4892 -0.1865 -0.2962
  202DG      C2 4625   2.792   3.217   3.910 -0.1366  0.3983 -0.1230
  202DG      H3 4626   2.714   3.416   4.720 -1.0264  1.3520  1.6355
  202DG      H4 4627   2.875   3.501   4.713  0.2173  1.9550 -0.4263
  202DG      H5 4628   2.871   3.336   4.784  3.4784  0.1753 -2.1657
  202DG      H6 4629   2.734   3.304   3.871  1.0479  0.1062 -1.4151
  202DG      H7 4630   2.875   3.190   3.844  1.1016 -0.6714 -0.2792
  202DG      H8 4631   2.725   3.135   3.903 -0.5538  0.3694  0.1675
  202DG      O9 4632   2.859   3.348   4.581 -0.0406 -0.6137 -0.3128
  202DG     O10 4633   2.849   3.227   4.040 -0.0323 -0.1834 -0.0364
  202DG     C11 4634   2.986   3.386   4.526 -0.3999 -0.3620 -0.6455
  202DG     C12 4635   2.754   3.273   4.141 -0.2168 -0.0760  0.0143
  202DG     H13 4636   3.068   3.364   4.600  3.4578 -2.1563 -0.4692
  202DG     H14 4637   2.991   3.493   4.500  0.4325 -2.4110 -1.5488
  202DG     H15 4638   2.662   3.220   4.134  1.0309  0.3770 -0.2616
  202DG     H16 4639   2.736   3.378   4.122  0.9254  3.0947  1.8945
  202DG     C17 4640   3.014   3.308   4.397  0.4483  0.5108  0.2254
  202DG     C18 4641   2.806   3.257   4.284  0.3543  0.2406  0.1792
  202DG     O19 4642   2.929   3.336   4.287  0.4370 -0.2323  0.6984
  202DG     H20 4643   3.019   3.204   4.417  1.1397  3.1902  0.2073
  202DG     H21 4644   3.110   3.347   4.373  0.2832 -0.8313  1.1189
  202DG     H22 4645   2.729   3.284   4.360  0.1723  0.4267  1.0092
  202DG     H23 4646   2.828   3.151   4.297 -2.9721  2.8937 -1.1097
  203DG      C1 4647   2.134   4.344   4.743 -0.6165  0.2632 -0.0907
  203DG      C2 4648   2.677   4.349   4.385 -0.1878 -0.7664  0.4370
  203DG      H3 4649   2.038   4.297   4.768 -0.5089 -0.0765 -1.6506
  203DG      H4 4650   2.118   4.456   4.737  1.6104  1.5932 -0.0903
  203DG      H5 4651   2.198   4.311   4.830 -0.1102 -1.1189  1.8182
  203DG      H6 4652   2.722   4.325   4.487  2.6808 -0.2781 -1.1834
  203DG      H7 4653   2.755   4.351   4.308  0.0091  2.6094 -0.0251
  203DG      H8 4654   2.632   4.442   4.413 -0.6588 -1.9130 -0.8572
  203DG      O9 4655   2.186   4.298   4.623  0.3090 -0.2113  0.4645
  203DG     O10 4656   2.575   4.247   4.380 -0.1897 -0.2892  0.3556
  203DG     C11 4657   2.094   4.300   4.510  1.2276 -0.2898 -0.7010
  203DG     C12 4658   2.498   4.244   4.258 -0.3510  0.6561  0.2655
  203DG     H13 4659   2.065   4.397   4.465  2.0738  0.7204  0.2572
  203DG     H14 4660   1.994   4.265   4.536  0.3191  1.1712 -3.1891
  203DG     H15 4661   2.537   4.186   4.177 -3.4749  0.6559  1.7694
  203DG     H16 4662   2.475   4.344   4.221  3.2193 -2.9430  1.2739
  203DG     C17 4663   2.153   4.210   4.402 -0.2729  1.0022  1.2281
  203DG     C18 4664   2.361   4.177   4.280 -0.8214 -0.4604 -0.8062
  203DG     O19 4665   2.289   4.261   4.376 -0.4032 -0.2895 -0.4397
  203DG     H20 4666   2.086   4.221   4.320 -0.9536 -1.7943  0.9965
  203DG     H21 4667   2.154   4.104   4.427 -2.3074  0.1250 -1.6147
  203DG     H22 4668   2.308   4.147   4.195  0.5628  1.4241  1.4893
  203DG     H23 4669   2.383   4.078   4.335 -0.5168  0.0282  0.3803
  204DG      C1 4670   3.335   4.484   4.799  0.3066  0.3188  0.3282
  204DG      C2 4671   3.834   4.356   5.166  1.1596 -0.6979  0.1530
  204DG      H3 4672   3.325   4.482   4.690 -1.2300  0.6187  1.3997
  204DG      H4 4673   3.411   4.561   4.820  1.2842  0.4408  0.0697
  204DG      H5 4674   3.248   4.530   4.850  0.7522  2.5746  0.4024
  204DG      H6 4675   3.779   4.449   5.186 -0.1320  0.5094 -2.3803
  204DG      H7 4676   3.786   4.282   5.238 -0.4789  0.0342  2.0609
  204DG      H8 4677   3.937   4.369   5.207  0.0610 -0.9313  1.0178
  204DG      O9 4678   3.372   4.367   4.866  0.7819  0.5014 -0.4701
  204DG     O10 4679   3.820   4.318   5.036 -0.2929  0.6122 -0.1027
  204DG     C11 4680   3.423   4.257   4.796 -0.0135  0.2602  0.1468
  204DG     C12 4681   3.850   4.416   4.934 -0.2500 -0.6869  0.4184
  204DG     H13 4682   3.352   4.221   4.721  0.7737 -0.1420  1.5902
  204DG     H14 4683   3.423   4.175   4.861 -1.1714 -0.8666 -0.4953
  204DG     H15 4684   3.962   4.434   4.901 -1.7681 -0.7506 -1.0581
  204DG     H16 4685   3.810   4.512   4.956  2.0459 -2.0019 -2.3540
  204DG     C17 4686   3.561   4.278   4.735 -1.0839 -0.4698  0.2057
  204DG     C18 4687   3.769   4.373   4.809 -0.1222  0.4142 -0.0087
  204DG     O19 4688   3.641   4.330   4.842  0.4638  0.5587  0.2197
  204DG     H20 4689   3.558   4.360   4.664 -0.8530 -2.2001 -3.5200
  204DG     H21 4690   3.597   4.187   4.691  3.2416  1.9198  1.8126
  204DG     H22 4691   3.763   4.458   4.745 -0.2777 -1.1927  1.0371
  204DG     H23 4692   3.810   4.287   4.750  1.7549  2.0531  1.3773
  205DG      C1 4693   1.691   1.472   4.055 -0.0129 -0.1588  0.3644
  205DG      C2 4694   1.051   1.356   4.060  0.0921 -0.3404 -0.2968
  205DG      H3 4695   1.702   1.370   4.091  0.9100 -1.6110 -1.2809
  205DG      H4 4696   1.647   1.528   4.137  1.1080  0.6021 -0.8239
  205DG      H5 4697   1.789   1.510   4.036 -1.4898  2.4944  0.1983
  205DG      H6 4698   1.062   1.256   4.098 -0.7683 -0.7095 -0.8161
  205DG      H7 4699   1.053   1.424   4.141 -2.8397  0.8868  0.6025
  205DG      H8 4700   0.947   1.373   4.029  1.6683  1.4352 -0.4937
  205DG      O9 4701   1.597   1.480   3.954  0.3121  0.0243  0.4632
  205DG     O10 4702   1.157   1.393   3.970  0.6151  0.1928 -0.2275
  205DG     C11 4703   1.625   1.407   3.832 -0.2599  0.4383  0.6768
  205DG     C12 4704   1.156   1.331   3.841  0.7997  0.2971 -0.0217
  205DG     H13 4705   1.635   1.295   3.842 -0.0490  0.6177  0.2452
  205DG     H14 4706   1.714   1.441   3.777 -1.9819  0.3993 -0.2675
  205DG     H15 4707   1.062   1.352   3.793  1.1415  3.1437 -0.5743
  205DG     H16 4708   1.175   1.225   3.857  0.7456 -0.0384 -1.4262
  205DG     C17 4709   1.500   1.412   3.754  0.1340 -1.6149 -0.8182
  205DG     C18 4710   1.267   1.383   3.763 -0.0121 -0.5449  0.1345
  205DG     O19 4711   1.390   1.355   3.821 -0.3823  0.3368  0.2367
  205DG     H20 4712   1.519   1.385   3.650  2.3342  0.6749 -1.9140
  205DG     H21 4713   1.486   1.520   3.749 -0.1352  0.8335  2.1147
  205DG     H22 4714   1.274   1.341   3.665 -0.5326 -1.3769  0.9003
  205DG     H23 4715   1.244   1.488   3.746 -0.8113 -1.5196  2.2433
  206DG      C1 4716   3.335   1.760   4.159 -0.0505  0.0719  0.5700
  206DG      C2 4717   3.203   1.350   4.971  0.1078 -0.2628 -0.4992
  206DG      H3 4718   3.412   1.783   4.088  1.7292 -0.2069  0.8526
  206DG      H4 4719   3.285   1.859   4.192  0.7936  0.2362  0.3432
  206DG      H5 4720   3.273   1.681   4.115  0.2380  2.9112  3.2070
  206DG      H6 4721   3.282   1.353   5.042  0.1273  0.8497 -0.4664
  206DG      H7 4722   3.110   1.401   5.014  0.0595  1.4928 -1.4114
  206DG      H8 4723   3.178   1.241   4.951 -1.1497 -3.9561 -0.6779
  206DG      O9 4724   3.404   1.704   4.274 -0.2212 -0.3669  0.1960
  206DG     O10 4725   3.237   1.408   4.839  0.3200 -0.1269  0.5940
  206DG     C11 4726   3.321   1.672   4.385  0.3872  0.2694  0.0586
  206DG     C12 4727   3.321   1.533   4.852 -0.9662  0.2584  0.1880
  206DG     H13 4728   3.262   1.588   4.354  2.5868  2.0781  3.2704
  206DG     H14 4729   3.262   1.755   4.416 -0.6597 -1.2912 -0.0191
  206DG     H15 4730   3.380   1.514   4.932  2.4898  0.4144  0.7430
  206DG     H16 4731   3.261   1.619   4.875 -2.2327 -0.4584 -1.5348
  206DG     C17 4732   3.408   1.634   4.507  0.0332  0.3998  0.2747
  206DG     C18 4733   3.411   1.564   4.733  0.2181 -0.4636  0.6969
  206DG     O19 4734   3.330   1.614   4.629 -0.2706 -0.2040  0.0582
  206DG     H20 4735   3.490   1.700   4.525  2.3251  0.7868 -3.0392
  206DG     H21 4736   3.458   1.548   4.476  2.4858 -0.8486 -0.1674
  206DG     H22 4737   3.480   1.637   4.761 -0.4258 -1.9091 -3.3954
  206DG     H23 4738   3.464   1.473   4.706  1.0427  2.0517 -0.4954
  207DG      C1 4739   0.208   1.833   1.346 -0.2768 -0.0829 -0.3732
  207DG      C2 4740   0.682   1.342   1.443  0.0549 -0.4480  0.3329
  207DG      H3 4741   0.179   1.831   1.445  1.8618 -0.1544 -0.9578
  207DG      H4 4742   0.151   1.756   1.291 -2.1423  0.3139 -1.5329
  207DG      H5 4743   0.178   1.928   1.301  0.2934  0.2974  1.0458
  207DG      H6 4744   0.775   1.295   1.408  1.5554 -1.2753  1.2877
  207DG      H7 4745   0.679   1.350   1.549 -0.4560 -2.8782  3.4995
  207DG      H8 4746   0.600   1.269   1.419  0.8941 -2.5855  3.1083
  207DG      O9 4747   0.345   1.804   1.348 -0.3487 -0.1163  0.4346
  207DG     O10 4748   0.662   1.471   1.382 -0.1062 -0.0816 -0.2852
  207DG     C11 4749   0.436   1.894   1.414 -0.5657  0.6737  0.2406
  207DG     C12 4750   0.774   1.557   1.413 -0.6167  0.5626 -0.9450
  207DG     H13 4751   0.412   1.895   1.521 -0.5493  0.0017  0.8724
  207DG     H14 4752   0.413   1.995   1.371 -1.5493 -3.3158  2.5584
  207DG     H15 4753   0.865   1.523   1.366  0.7290  0.4480 -0.9050
  207DG     H16 4754   0.791   1.555   1.520  2.0841  0.0589 -0.4890
  207DG     C17 4755   0.581   1.868   1.401 -0.3790 -0.6459 -0.1387
  207DG     C18 4756   0.744   1.700   1.376 -0.0955 -0.3188 -0.1763
  207DG     O19 4757   0.610   1.733   1.420 -0.1614 -0.8394 -0.1385
  207DG     H20 4758   0.635   1.930   1.466 -1.9260 -2.0237  0.1519
  207DG     H21 4759   0.616   1.896   1.300  1.8867 -2.4605  0.5242
  207DG     H22 4760   0.813   1.769   1.425  0.8194 -0.0620 -0.1552
  207DG     H23 4761   0.736   1.719   1.268 -0.7436  3.8155 -0.1159
  208DG      C1 4762   1.691   1.782   0.237  0.3031  0.8231 -0.2269
  208DG      C2 4763   1.327   1.725   0.805  0.0640  0.9359 -0.2095
  208DG      H3 4764   1.621   1.770   0.150 -0.9539  0.6195 -0.4990
  208DG      H4 4765   1.725   1.685   0.282 -1.0988 -2.0166  1.6970
  208DG      H5 4766   1.772   1.850   0.207  2.3103 -0.2910  1.5610
  208DG      H6 4767   1.375   1.630   0.796 -3.1074 -0.6041  1.3777
  208DG      H7 4768   1.330   1.748   0.910 -0.2329 -1.0370 -0.8752
  208DG      H8 4769   1.224   1.709   0.768 -0.3701 -1.9108  0.7123
  208DG      O9 4770   1.618   1.841   0.338 -0.0769  0.2093 -0.2848
  208DG     O10 4771   1.394   1.824   0.728  0.3724  0.1288 -0.7589
  208DG     C11 4772   1.568   1.970   0.295  0.1763  0.8325 -0.0660
  208DG     C12 4773   1.317   1.938   0.700 -0.7722 -0.0809  0.1656
  208DG     H13 4774   1.478   1.959   0.229 -0.7196  1.8990  1.2521
  208DG     H14 4775   1.632   2.029   0.232 -1.4825 -0.6144  2.4007
  208DG     H15 4776   1.289   1.972   0.801 -1.4948  2.0197 -0.6183
  208DG     H16 4777   1.224   1.921   0.648 -2.7781 -0.0696 -0.8869
  208DG     C17 4778   1.533   2.056   0.416 -0.4788 -0.4783 -0.4258
  208DG     C18 4779   1.399   2.042   0.621  0.6314  0.1273  0.1769
  208DG     O19 4780   1.446   1.978   0.501 -0.3803  0.3236 -0.5038
  208DG     H20 4781   1.499   2.151   0.378  1.9643  1.7548 -1.3680
  208DG     H21 4782   1.627   2.086   0.465  0.1866  0.7842  1.1460
  208DG     H22 4783   1.337   2.126   0.601 -1.7661 -0.6828  2.8099
  208DG     H23 4784   1.485   2.080   0.669 -1.5492  0.7175  0.5135
  209DG      C1 4785   4.758   1.979   4.339  0.0542  0.0994 -0.2792
  209DG      C2 4786   5.130   2.181   4.917 -0.1510  0.8894 -0.6775
  209DG      H3 4787   4.790   2.074   4.300 -0.4191 -1.0146 -1.1366
  209DG      H4 4788   4.661   1.967   4.313  2.2354 -1.6540  0.0991
  209DG      H5 4789   4.814   1.895   4.306  2.2204  1.3988  0.6091
  209DG      H6 4790   5.116   2.218   5.016 -0.5633  1.3157  0.5691
  209DG      H7 4791   5.222   2.118   4.926 -2.0269 -0.6522 -1.1174
  209DG      H8 4792   5.152   2.272   4.867 -1.0806 -1.4244 -0.6190
  209DG      O9 4793   4.775   1.961   4.479 -0.2894 -0.2641  0.0777
  209DG     O10 4794   5.019   2.121   4.854 -0.8730 -0.2892 -0.3748
  209DG     C11 4795   4.767   1.825   4.521 -0.8258  0.1776  0.3019
  209DG     C12 4796   4.958   2.015   4.935  0.7159  0.0211  0.2871
  209DG     H13 4797   4.853   1.764   4.493  1.5712  0.7971  0.2666
  209DG     H14 4798   4.674   1.783   4.485 -0.5181 -0.4159  1.2467
  209DG     H15 4799   4.927   2.057   5.028 -3.3187 -1.0639 -2.4389
  209DG     H16 4800   5.032   1.942   4.958 -0.3955  0.2057 -3.5677
  209DG     C17 4801   4.756   1.832   4.671 -0.2943 -0.4397  0.4753
  209DG     C18 4802   4.839   1.954   4.863  0.1171  0.9242 -0.1822
  209DG     O19 4803   4.867   1.908   4.728  0.1090  0.2925 -0.2465
  209DG     H20 4804   4.772   1.735   4.709  2.0828  1.6848 -3.4197
  209DG     H21 4805   4.660   1.868   4.696  1.5223 -0.5265 -0.0689
  209DG     H22 4806   4.801   1.872   4.929  0.0951 -1.1814 -1.4937
  209DG     H23 4807   4.757   2.025   4.844  0.0664 -0.5561 -1.0673
  210DG      C1 4808   0.234   3.475   4.690  0.3823  0.5649 -0.5447
  210DG      C2 4809   0.504   3.914   4.946 -0.3166  0.1604 -0.1468
  210DG      H3 4810   0.309   3.396   4.667  1.5054 -2.5140  1.5212
  210DG      H4 4811   0.286   3.559   4.733  2.5031 -0.2549 -1.7230
  210DG      H5 4812   0.195   3.513   4.595 -1.9652  4.3580  0.6666
  210DG      H6 4813   0.609   3.882   4.929 -2.1848  0.5269 -0.7535
  210DG      H7 4814   0.448   3.963   4.863 -1.9823  3.9917  0.5524
  210DG      H8 4815   0.494   3.981   5.035 -2.4783  1.0714  0.7496
  210DG      O9 4816   0.124   3.421   4.764  0.8671  0.3611  0.0071
  210DG     O10 4817   0.449   3.792   4.994  0.5731 -0.1488 -0.1525
  210DG     C11 4818   0.163   3.378   4.891  0.1727 -0.4159  0.2228
  210DG     C12 4819   0.476   3.674   4.921 -0.3748  0.3710  0.4734
  210DG     H13 4820   0.249   3.308   4.892  0.8932  1.8006  1.4172
  210DG     H14 4821   0.073   3.319   4.911 -0.3138  2.1147  1.2174
  210DG     H15 4822   0.578   3.641   4.915  2.0211  1.8615  0.9651
  210DG     H16 4823   0.454   3.692   4.820  0.1306 -0.8808  0.9607
  210DG     C17 4824   0.166   3.496   4.989  0.5589  0.6308  0.5072
  210DG     C18 4825   0.397   3.565   4.978 -0.6515 -0.6272  0.2478
  210DG     O19 4826   0.257   3.604   4.973 -0.2895 -0.5416 -0.2863
  210DG     H20 4827   0.185   3.463   5.089  0.5121  0.1260 -1.2905
  210DG     H21 4828   0.060   3.514   4.997  0.5902  0.3707  0.8351
  210DG     H22 4829   0.423   3.470   4.931 -0.9520  0.8457 -0.1308
  210DG     H23 4830   0.418   3.539   5.085 -0.0667 -0.3512  0.7029
  211DG      C1 4831   0.890   1.506   3.311 -0.0112  0.3355 -0.4997
  211DG      C2 4832   1.288   1.759   4.046  0.5741  0.9066  0.6864
  211DG      H3 4833   0.948   1.464   3.227 -1.6728 -2.3146 -0.1867
  211DG      H4 4834   0.800   1.546   3.270  0.6193  0.6946 -0.3873
  211DG      H5 4835   0.858   1.415   3.358 -0.1233  4.6193  0.2196
  211DG      H6 4836   1.368   1.744   3.974  0.7403  1.1120  1.5691
  211DG      H7 4837   1.321   1.825   4.128  0.9357  2.6326  0.0131
  211DG      H8 4838   1.256   1.664   4.092 -1.6120  0.4124  2.0925
  211DG      O9 4839   0.953   1.592   3.409 -0.3224  0.5781 -0.1428
  211DG     O10 4840   1.190   1.825   3.971  0.4114  0.1314  0.6278
  211DG     C11 4841   0.856   1.645   3.501  0.3059 -0.2216 -0.1079
  211DG     C12 4842   1.140   1.733   3.879  0.4717  0.1088  0.5089
  211DG     H13 4843   0.813   1.567   3.567  1.0144  0.9067 -2.7167
  211DG     H14 4844   0.764   1.680   3.449 -3.4032 -2.5645 -0.3003
  211DG     H15 4845   1.077   1.669   3.937 -0.4550  0.1436 -1.0245
  211DG     H16 4846   1.216   1.686   3.821 -0.2925  1.6481  1.7181
  211DG     C17 4847   0.918   1.760   3.584 -0.0598 -0.2967 -0.3262
  211DG     C18 4848   1.051   1.807   3.777  0.3219  0.2808 -0.8628
  211DG     O19 4849   0.996   1.707   3.694  0.1153  0.1603 -0.1526
  211DG     H20 4850   0.832   1.799   3.640 -0.0109 -0.5563  0.0321
  211DG     H21 4851   0.974   1.845   3.545 -1.0320  0.5243 -0.2033
  211DG     H22 4852   0.968   1.853   3.833  1.3298 -0.7183  0.0344
  211DG     H23 4853   1.113   1.883   3.724 -1.7529  0.0624 -0.3761
  212DG      C1 4854   0.758   1.015   5.042 -0.3990 -0.1981 -0.8802
  212DG      C2 4855   0.652   1.786   4.729  0.3898 -0.6899 -0.4062
  212DG      H3 4856   0.738   0.917   4.989  0.2839  1.8717  0.6546
  212DG      H4 4857   0.670   1.029   5.100  1.6543 -0.0477  0.9571
  212DG      H5 4858   0.837   0.988   5.110  0.1741 -0.9255 -4.9068
  212DG      H6 4859   0.568   1.770   4.794  1.0007  0.3730  3.0679
  212DG      H7 4860   0.726   1.835   4.782 -1.1799 -1.0414  0.6028
  212DG      H8 4861   0.599   1.840   4.645  0.6380  0.8798  1.0172
  212DG      O9 4862   0.786   1.133   4.962  0.0852  0.6331 -0.3609
  212DG     O10 4863   0.714   1.667   4.690 -0.0984  0.0160  0.0048
  212DG     C11 4864   0.922   1.142   4.910  0.1422 -0.5536  0.4212
  212DG     C12 4865   0.761   1.578   4.791  0.4364  0.4258 -0.5983
  212DG     H13 4866   0.965   1.050   4.876 -2.6189 -0.9256  0.8650
  212DG     H14 4867   0.973   1.185   4.997 -0.9339 -0.5762  1.5208
  212DG     H15 4868   0.682   1.564   4.866 -0.0058  1.1690  1.4358
  212DG     H16 4869   0.848   1.612   4.859  2.7851  0.9541 -0.5942
  212DG     C17 4870   0.917   1.242   4.791  0.2493 -0.6684 -0.2922
  212DG     C18 4871   0.787   1.432   4.736  0.1440  0.2308 -0.2507
  212DG     O19 4872   0.842   1.351   4.838 -0.6812 -0.4593 -0.2064
  212DG     H20 4873   0.872   1.209   4.698  1.6219 -1.2137  0.3751
  212DG     H21 4874   1.015   1.265   4.753  0.7437 -0.5241 -1.4759
  212DG     H22 4875   0.701   1.386   4.684 -0.3014  2.4650  1.2972
  212DG     H23 4876   0.863   1.438   4.657 -1.2520 -2.0167 -1.0261
  213DG      C1 4877   1.516   4.431   2.077  0.3275 -0.8541 -0.0573
  213DG      C2 4878   1.118   5.060   1.648 -0.5291 -0.5351 -0.9207
  213DG      H3 4879   1.555   4.488   2.163  2.0275 -0.9783 -0.8088
  213DG      H4 4880   1.608   4.407   2.022  0.9876 -1.2076  0.0512
  213DG      H5 4881   1.482   4.336   2.108  0.1392  1.2865 -0.4179
  213DG      H6 4882   1.080   5.047   1.548 -0.8268  0.5105  0.9043
  213DG      H7 4883   1.073   5.151   1.687  0.0672 -3.9207  1.9293
  213DG      H8 4884   1.229   5.070   1.631 -1.3655  0.8771 -0.7689
  213DG      O9 4885   1.433   4.510   1.989 -0.2574  0.1206  0.3098
  213DG     O10 4886   1.093   4.949   1.734 -0.4161  0.9630  0.4919
  213DG     C11 4887   1.328   4.577   2.068  0.2487 -0.6417  0.2676
  213DG     C12 4888   1.151   4.962   1.857 -0.4767  0.1042  0.4034
  213DG     H13 4889   1.357   4.675   2.106 -2.4780  1.1638 -1.1784
  213DG     H14 4890   1.308   4.524   2.156  1.1858 -0.9755 -1.5986
  213DG     H15 4891   1.093   5.041   1.912  0.2097  0.3154  0.4070
  213DG     H16 4892   1.256   4.994   1.849 -1.0547 -0.4025 -1.1968
  213DG     C17 4893   1.207   4.602   1.973  0.1863 -0.4957  0.2082
  213DG     C18 4894   1.142   4.825   1.934  0.2151  0.0236 -0.4795
  213DG     O19 4895   1.218   4.718   1.889 -0.7924 -0.0787  0.0865
  213DG     H20 4896   1.116   4.584   2.026  0.9694 -0.4780 -0.1946
  213DG     H21 4897   1.191   4.526   1.898 -1.3748  0.2645  1.0863
  213DG     H22 4898   1.185   4.833   2.041 -1.8188 -3.5433  1.0974
  213DG     H23 4899   1.035   4.809   1.929 -0.5186  0.8923 -2.4490
  214DG      C1 4900   2.111   3.384   1.664 -0.0070 -0.0590 -0.0296
  214DG      C2 4901   2.135   2.856   1.105  0.3088 -0.4086  0.0035
  214DG      H3 4902   2.171   3.446   1.727 -4.4465 -0.3586 -0.7215
  214DG      H4 4903   2.010   3.427   1.671 -1.9951  1.0873  2.5883
  214DG      H5 4904   2.124   3.409   1.562  0.7777 -1.7931  1.0680
  214DG      H6 4905   2.230   2.855   1.051 -0.9119  2.3328 -0.2452
  214DG      H7 4906   2.108   2.753   1.102  0.6372  1.1898  0.3700
  214DG      H8 4907   2.055   2.902   1.057  1.1916 -0.5616 -1.1846
  214DG      O9 4908   2.117   3.241   1.684  0.3191  0.4258 -0.5371
  214DG     O10 4909   2.143   2.910   1.237  0.4917 -0.1076 -0.0622
  214DG     C11 4910   2.242   3.183   1.669 -0.0436  0.2191 -0.1871
  214DG     C12 4911   2.171   3.047   1.237 -0.8271 -0.5918 -0.0919
  214DG     H13 4912   2.291   3.175   1.765 -0.7595  0.3421  0.1551
  214DG     H14 4913   2.306   3.233   1.602  1.7209  0.4929  1.0014
  214DG     H15 4914   2.078   3.096   1.212 -1.2651  1.7412  1.0438
  214DG     H16 4915   2.248   3.090   1.167  0.5502  2.2150  0.1359
  214DG     C17 4916   2.210   3.044   1.610 -0.4664  0.1308  0.3534
  214DG     C18 4917   2.220   3.108   1.375 -0.7474 -0.3251  0.9430
  214DG     O19 4918   2.143   3.056   1.486  0.1582  0.0336 -0.5492
  214DG     H20 4919   2.143   2.978   1.669 -1.8422  3.1689 -0.0812
  214DG     H21 4920   2.309   2.994   1.594  1.4988  1.4829 -1.4594
  214DG     H22 4921   2.328   3.077   1.381  2.1190 -2.0427  0.5298
  214DG     H23 4922   2.216   3.214   1.390  1.9216  1.5754 -2.6907
  215DG      C1 4923   4.173   3.770   0.952 -0.0232  0.1798  1.1790
  215DG      C2 4924   4.804   3.697   1.054 -0.0293  0.2410  0.1208
  215DG      H3 4925   4.168   3.741   0.848 -1.4324  4.1629 -1.4587
  215DG      H4 4926   4.200   3.870   0.974  1.4220 -1.1003 -0.2175
  215DG      H5 4927   4.075   3.771   0.995  0.1646  0.4809  0.7943
  215DG      H6 4928   4.836   3.627   0.980 -1.8393 -1.3979  3.1942
  215DG      H7 4929   4.807   3.797   1.009 -1.3260 -0.5052 -1.7137
  215DG      H8 4930   4.875   3.694   1.132 -3.9492 -0.6034 -1.4520
  215DG      O9 4931   4.260   3.685   1.024 -0.4215  0.4671  0.0236
  215DG     O10 4932   4.674   3.657   1.102  0.4470 -0.5985  1.1995
  215DG     C11 4933   4.210   3.568   1.080 -0.4165  0.3967 -0.5304
  215DG     C12 4934   4.667   3.519   1.136 -0.4674  0.1334 -0.1221
  215DG     H13 4935   4.193   3.488   0.999 -1.9257 -1.1829 -0.8681
  215DG     H14 4936   4.115   3.587   1.123  1.5891 -0.7981 -1.0052
  215DG     H15 4937   4.741   3.499   1.207 -3.1096  2.6149  2.3817
  215DG     H16 4938   4.673   3.454   1.051 -0.4290  0.6465  1.6687
  215DG     C17 4939   4.309   3.526   1.184  0.3321  0.4885  0.4921
  215DG     C18 4940   4.541   3.484   1.209  0.1886 -0.1683 -0.4904
  215DG     O19 4941   4.434   3.514   1.119  0.1146 -0.4039  0.0713
  215DG     H20 4942   4.280   3.429   1.227 -0.0082  0.8367 -2.3300
  215DG     H21 4943   4.318   3.590   1.270 -0.9716  1.6973  2.4345
  215DG     H22 4944   4.549   3.376   1.241 -2.0551  1.0406 -0.8956
  215DG     H23 4945   4.541   3.550   1.305 -1.4959  1.4076 -0.6849
  216DG      C1 4946   0.972   4.032   3.681 -0.0677 -0.4333  0.6513
  216DG      C2 4947   1.105   3.503   4.147  0.4369  0.1491  0.1452
  216DG      H3 4948   1.001   4.098   3.595 -0.6805 -0.3178  0.9946
  216DG      H4 4949   0.987   4.095   3.770  1.4236 -1.2709  1.4095
  216DG      H5 4950   0.860   4.023   3.681  0.1900  2.1623  3.3592
  216DG      H6 4951   1.056   3.556   4.231  1.1792 -2.0283 -0.6901
  216DG      H7 4952   1.112   3.398   4.174  1.6232 -1.6877  1.2956
  216DG      H8 4953   1.205   3.538   4.136 -0.5569 -0.5808 -2.5622
  216DG      O9 4954   1.042   3.909   3.691  0.4271 -0.2304 -0.2824
  216DG     O10 4955   1.051   3.535   4.018 -0.5849  0.1193 -0.8417
  216DG     C11 4956   1.182   3.913   3.676 -0.0402 -0.3049  0.1936
  216DG     C12 4957   1.127   3.484   3.911  0.3257  0.1124  0.3675
  216DG     H13 4958   1.230   3.972   3.755  3.4507  2.8244  0.0765
  216DG     H14 4959   1.205   3.947   3.577 -1.7680  0.7945 -1.3336
  216DG     H15 4960   1.056   3.443   3.840  2.2737 -1.2840 -3.1604
  216DG     H16 4961   1.190   3.398   3.942  1.6709  1.1987 -0.1783
  216DG     C17 4962   1.227   3.767   3.692  0.5478  0.8204  0.2638
  216DG     C18 4963   1.218   3.593   3.851 -0.0192 -0.4835  0.1629
  216DG     O19 4964   1.145   3.701   3.792 -0.1912 -0.0131  0.2449
  216DG     H20 4965   1.335   3.771   3.709  2.6068  0.5501  1.6705
  216DG     H21 4966   1.210   3.712   3.597 -1.3373  0.3652  0.5188
  216DG     H22 4967   1.287   3.629   3.921  1.5325  2.6420  0.5291
  216DG     H23 4968   1.282   3.535   3.783 -0.1076 -0.0631 -0.3017
  217DG      C1 4969   0.966   5.374   2.616 -0.0530  0.3011 -0.1321
  217DG      C2 4970   0.354   5.220   2.805 -0.5418 -0.3478 -0.5996
  217DG      H3 4971   0.980   5.270   2.632  1.3840 -0.4695 -1.5229
  217DG      H4 4972   1.066   5.415   2.600 -0.6576 -0.5901 -0.3559
  217DG      H5 4973   0.917   5.391   2.520 -1.4197 -0.3350 -0.2855
  217DG      H6 4974   0.332   5.220   2.702  2.3839  0.8160 -2.4981
  217DG      H7 4975   0.412   5.128   2.821 -0.0172 -1.0501 -1.4741
  217DG      H8 4976   0.267   5.214   2.870 -0.4270  0.0598 -1.4512
  217DG      O9 4977   0.884   5.442   2.712 -0.2250  0.5030 -0.4559
  217DG     O10 4978   0.428   5.339   2.834 -0.0006 -0.3988  0.1119
  217DG     C11 4979   0.922   5.423   2.849 -0.0308  0.3149  0.0015
  217DG     C12 4980   0.468   5.343   2.969 -0.2889  0.1036  0.8738
  217DG     H13 4981   1.022   5.469   2.867 -2.3721  0.7471  2.0409
  217DG     H14 4982   0.935   5.318   2.865  0.8884  0.3356 -0.6381
  217DG     H15 4983   0.494   5.241   3.012 -2.0249 -1.4122  0.2528
  217DG     H16 4984   0.381   5.364   3.037 -4.3068 -1.2704  0.3756
  217DG     C17 4985   0.816   5.482   2.935 -0.2980 -0.1177 -0.6385
  217DG     C18 4986   0.585   5.436   2.997 -0.4339 -0.2459 -0.0755
  217DG     O19 4987   0.702   5.393   2.927 -0.0817 -0.2238 -0.1217
  217DG     H20 4988   0.796   5.591   2.910  0.3553 -2.0643 -0.5523
  217DG     H21 4989   0.848   5.482   3.044  0.1455  0.7321 -0.8968
  217DG     H22 4990   0.563   5.536   2.972  0.0807 -1.1021 -0.5891
  217DG     H23 4991   0.623   5.437   3.101 -0.0298 -2.0852  0.2740
  218DG      C1 4992   4.976   4.719   0.811  0.3016 -0.6968 -0.6319
  218DG      C2 4993   5.326   5.338   0.639  0.2719 -0.6288  0.1784
  218DG      H3 4994   5.063   4.655   0.834 -1.2080  0.5727  0.5258
  218DG      H4 4995   4.935   4.683   0.719 -2.6823  0.8600  0.4183
  218DG      H5 4996   4.925   4.689   0.898  0.3121 -0.6750 -1.5941
  218DG      H6 4997   5.426   5.325   0.687  2.7291  2.7402  0.6479
  218DG      H7 4998   5.316   5.283   0.550 -0.2199  0.5236  1.1567
  218DG      H8 4999   5.318   5.439   0.612  2.5202 -0.9388 -1.1992
  218DG      O9 5000   5.004   4.859   0.801 -0.0257  0.2139 -0.5960
  218DG     O10 5001   5.230   5.297   0.730  0.0100 -0.3310 -0.7799
  218DG     C11 5002   4.883   4.934   0.774 -0.1085 -0.0272 -0.2057
  218DG     C12 5003   5.100   5.331   0.693 -0.1803  0.0870  0.9168
  218DG     H13 5004   4.814   4.915   0.855 -0.3288 -1.2685 -0.3399
  218DG     H14 5005   4.822   4.902   0.682  0.1272  0.2820 -1.6170
  218DG     H15 5006   5.077   5.430   0.647  0.7406 -2.5189 -2.8190
  218DG     H16 5007   5.037   5.333   0.785 -3.2213 -3.3571 -1.4354
  218DG     C17 5008   4.927   5.083   0.764 -0.0094  0.1302  0.0191
  218DG     C18 5009   5.038   5.223   0.595 -0.6478 -0.3850  0.0107
  218DG     O19 5010   5.035   5.097   0.674  0.0004  0.3172  0.6164
  218DG     H20 5011   4.965   5.117   0.862 -1.7804  3.3584 -0.4324
  218DG     H21 5012   4.841   5.145   0.732 -0.0663  1.0955 -3.0740
  218DG     H22 5013   4.945   5.247   0.557  2.6791  1.1780  0.7066
  218DG     H23 5014   5.109   5.211   0.514 -2.6412 -0.5357  0.0109
  219DG      C1 5015   0.912   3.985   2.195  0.0813  0.2655 -0.1454
  219DG      C2 5016   1.092   4.562   2.381  0.2319 -0.0516  1.4803
  219DG      H3 5017   0.872   3.883   2.218 -1.4024 -2.9028  1.3147
  219DG      H4 5018   0.970   3.975   2.100 -0.9538 -2.6578  1.3550
  219DG      H5 5019   0.826   4.046   2.182  0.8942 -1.9723 -0.0653
  219DG      H6 5020   1.116   4.634   2.455 -0.6948 -0.7516  1.4996
  219DG      H7 5021   1.175   4.565   2.308  3.5744 -0.2840  0.6677
  219DG      H8 5022   1.000   4.580   2.337  0.1946 -0.0422  0.6868
  219DG      O9 5023   0.999   4.035   2.294  0.2376 -0.8565  0.4397
  219DG     O10 5024   1.089   4.430   2.443 -0.2614 -0.5772 -0.0887
  219DG     C11 5025   0.986   3.976   2.424 -0.4558  0.4062 -0.4470
  219DG     C12 5026   1.014   4.430   2.563 -0.0972  0.3095 -0.9344
  219DG     H13 5027   1.021   3.876   2.416  0.0450  0.4603 -0.3639
  219DG     H14 5028   0.882   3.979   2.459 -0.6359 -2.2113 -1.3514
  219DG     H15 5029   0.914   4.455   2.536  1.0370 -2.2244  1.3321
  219DG     H16 5030   1.054   4.494   2.638 -1.2937 -1.1337 -0.2071
  219DG     C17 5031   1.060   4.056   2.533 -0.2657 -0.1545 -0.0256
  219DG     C18 5032   1.035   4.282   2.609  0.4077  0.1469 -0.1767
  219DG     O19 5033   1.027   4.190   2.502  0.4350  0.0534  0.2531
  219DG     H20 5034   1.168   4.048   2.520 -0.6261  0.0797 -1.3617
  219DG     H21 5035   1.018   4.027   2.630  0.4089  0.4496  0.5528
  219DG     H22 5036   1.134   4.267   2.655 -0.0829 -0.4595  1.2420
  219DG     H23 5037   0.965   4.261   2.686  1.3767  0.6784 -1.8468
  220DG      C1 5038   2.178   5.452   1.453  0.4777 -0.6684  0.0395
  220DG      C2 5039   2.878   5.133   1.601  0.0597 -0.0768  0.1385
  220DG      H3 5040   2.201   5.469   1.347 -0.0092 -0.3325  1.2329
  220DG      H4 5041   2.186   5.547   1.495  0.3661  0.5080  0.4912
  220DG      H5 5042   2.072   5.409   1.454  0.2340 -0.4936  0.4507
  220DG      H6 5043   2.915   5.201   1.675 -0.2255 -0.8677  0.5072
  220DG      H7 5044   2.920   5.031   1.613 -1.7418 -0.3146 -2.7829
  220DG      H8 5045   2.907   5.175   1.503  3.5819  1.4352  0.5916
  220DG      O9 5046   2.279   5.366   1.501  0.6678 -0.5248 -0.3647
  220DG     O10 5047   2.737   5.138   1.606 -0.7547 -0.2460  0.5625
  220DG     C11 5048   2.261   5.331   1.641  0.0691 -0.7666  0.4750
  220DG     C12 5049   2.680   5.088   1.723  0.5064 -0.4602 -0.7710
  220DG     H13 5050   2.159   5.325   1.666  1.7243  0.2270 -1.2406
  220DG     H14 5051   2.303   5.410   1.696  1.0073 -0.0643 -1.4863
  220DG     H15 5052   2.687   5.165   1.806  0.0091  0.3741  0.3957
  220DG     H16 5053   2.724   4.991   1.756 -0.1619  0.2814  3.0390
  220DG     C17 5054   2.330   5.200   1.689 -0.0458 -0.3736  0.0942
  220DG     C18 5055   2.529   5.062   1.707  0.2089  0.1498  0.0438
  220DG     O19 5056   2.469   5.187   1.666 -0.1313  0.4636  0.6733
  220DG     H20 5057   2.292   5.115   1.636 -3.2777 -1.2055  0.5671
  220DG     H21 5058   2.309   5.195   1.791  2.8542  1.8279 -2.3517
  220DG     H22 5059   2.510   4.986   1.634  1.5519  1.0169  0.9180
  220DG     H23 5060   2.501   5.022   1.804 -0.2622  0.2787 -2.0923
  221DG      C1 5061   1.531   0.705   4.411  0.2010 -0.2599 -0.1523
  221DG      C2 5062   1.434   0.117   4.019 -0.7750 -0.5376 -0.6073
  221DG      H3 5063   1.631   0.711   4.367 -0.5512  0.9207  2.8686
  221DG      H4 5064   1.534   0.742   4.512 -2.3302 -1.4523  1.9224
  221DG      H5 5065   1.465   0.767   4.347 -2.7538  3.6735  1.3634
  221DG      H6 5066   1.411   0.011   4.047  0.0499 -2.1608 -1.4973
  221DG      H7 5067   1.372   0.145   3.938  2.3889 -1.3259  0.3806
  221DG      H8 5068   1.539   0.121   3.995 -1.2840  0.9077 -1.2346
  221DG      O9 5069   1.475   0.577   4.399  0.1759 -0.3363 -0.1951
  221DG     O10 5070   1.413   0.195   4.140  0.0105  0.3568  0.3677
  221DG     C11 5071   1.346   0.563   4.449  0.4292  0.6572  0.1421
  221DG     C12 5072   1.271   0.189   4.168 -0.4611  0.0001 -0.6238
  221DG     H13 5073   1.280   0.620   4.381  1.2217  1.6605  1.2773
  221DG     H14 5074   1.324   0.594   4.547  0.9801 -3.6006 -1.9990
  221DG     H15 5075   1.230   0.092   4.153 -3.1633 -1.4831  3.1090
  221DG     H16 5076   1.218   0.253   4.104 -0.8914 -3.2317  0.6117
  221DG     C17 5077   1.299   0.420   4.444 -0.4761 -0.3964  0.8535
  221DG     C18 5078   1.266   0.231   4.315  1.0384  0.0527 -0.2075
  221DG     O19 5079   1.323   0.358   4.320  0.9379  0.2615  0.2429
  221DG     H20 5080   1.193   0.418   4.458  5.4372  0.3939 -2.7430
  221DG     H21 5081   1.348   0.352   4.523 -0.3754 -0.8867  0.8077
  221DG     H22 5082   1.161   0.222   4.341  0.9593  0.4461 -0.3176
  221DG     H23 5083   1.315   0.161   4.380 -1.5459 -0.7259 -1.3957
  222DG      C1 5084   0.761   4.302   5.300  0.5764  0.2133  0.0053
  222DG      C2 5085   1.390   4.466   4.919  0.0040  0.7350 -0.4925
  222DG      H3 5086   0.794   4.312   5.401 -0.5286  0.5928  1.6088
  222DG      H4 5087   0.690   4.226   5.304 -1.9538  3.5471 -0.9897
  222DG      H5 5088   0.709   4.392   5.274  0.9727  1.3982  1.7755
  222DG      H6 5089   1.423   4.552   4.970 -0.4310 -0.5777 -2.4160
  222DG      H7 5090   1.493   4.425   4.895  1.4740 -1.3845 -0.2154
  222DG      H8 5091   1.340   4.493   4.827 -2.5858 -2.3418  3.2399
  222DG      O9 5092   0.868   4.253   5.219 -0.1705  0.0704  0.3185
  222DG     O10 5093   1.324   4.386   5.008 -0.2502 -0.1526  0.3505
  222DG     C11 5094   0.880   4.305   5.089 -0.3825 -0.0568  0.1489
  222DG     C12 5095   1.302   4.258   4.951  1.0549  1.0129 -0.2906
  222DG     H13 5096   0.905   4.407   5.095 -2.4992 -0.4771 -0.1768
  222DG     H14 5097   0.780   4.308   5.042 -1.1710  1.6382 -2.0979
  222DG     H15 5098   1.392   4.206   4.923 -0.1141  0.5363  0.0449
  222DG     H16 5099   1.252   4.271   4.857  0.5029 -2.4274 -2.7155
  222DG     C17 5100   0.986   4.223   5.014  0.5159  0.6740 -0.6785
  222DG     C18 5101   1.213   4.158   5.029 -0.2987 -1.1874  0.0915
  222DG     O19 5102   1.106   4.229   5.089 -0.5435  0.0077 -0.5236
  222DG     H20 5103   0.997   4.256   4.913 -0.7189 -1.7342 -0.0792
  222DG     H21 5104   0.947   4.117   5.013  0.0343 -1.0271  1.1776
  222DG     H22 5105   1.186   4.073   4.969 -0.9354 -0.9835  1.5362
  222DG     H23 5106   1.273   4.114   5.109 -1.7116 -2.8310 -1.1311
  223DG      C1 5107   4.783   1.883   1.129  0.1962  0.0717 -0.2815
  223DG      C2 5108   4.848   1.749   1.901 -0.1456  0.2596 -0.6202
  223DG      H3 5109   4.709   1.887   1.050  0.9201  0.6440 -2.0105
  223DG      H4 5110   4.884   1.894   1.093  0.2741  1.4584 -2.0022
  223DG      H5 5111   4.759   1.961   1.205 -1.4270  1.0862  1.9447
  223DG      H6 5112   4.855   1.855   1.929  1.1172 -1.1941  2.8258
  223DG      H7 5113   4.809   1.693   1.992 -0.3156 -0.2063  2.5850
  223DG      H8 5114   4.957   1.722   1.880  1.7414 -1.1476  0.7211
  223DG      O9 5115   4.764   1.761   1.205 -0.2866 -0.3484 -0.5135
  223DG     O10 5116   4.771   1.725   1.788 -0.1067  0.2475 -0.6401
  223DG     C11 5117   4.645   1.756   1.285 -0.8658  0.0570 -0.2298
  223DG     C12 5118   4.796   1.602   1.720  0.8002 -0.9786 -0.3875
  223DG     H13 5119   4.560   1.760   1.212 -0.8290 -0.7544 -1.3910
  223DG     H14 5120   4.625   1.843   1.342 -0.5543 -1.0484 -2.2756
  223DG     H15 5121   4.768   1.523   1.788  0.0496 -1.6085 -0.0405
  223DG     H16 5122   4.892   1.591   1.672 -0.7602  2.5172  0.3620
  223DG     C17 5123   4.638   1.638   1.388  1.0472 -0.2813  0.1690
  223DG     C18 5124   4.691   1.586   1.610  0.0730  0.3077  0.3310
  223DG     O19 5125   4.714   1.673   1.495 -0.1798  0.3873 -0.7604
  223DG     H20 5126   4.672   1.545   1.348 -1.0723 -2.8775  3.0114
  223DG     H21 5127   4.538   1.623   1.418 -0.3444  1.6054 -0.8347
  223DG     H22 5128   4.696   1.483   1.581  1.5897 -0.3904 -1.9908
  223DG     H23 5129   4.593   1.614   1.655  1.2203 -0.3102 -1.6382
  224DG      C1 5130   0.552   2.807   3.409 -0.1201  0.1543 -1.2673
  224DG      C2 5131   0.842   3.122   2.801  0.0832 -0.2436 -0.1025
  224DG      H3 5132   0.505   2.840   3.504  0.0065 -0.1342  0.6320
  224DG      H4 5133   0.608   2.717   3.426  1.8245 -0.6586  0.3891
  224DG      H5 5134   0.474   2.788   3.337 -1.3425  1.2557 -0.4850
  224DG      H6 5135   0.926   3.093   2.750 -0.0272 -0.6273  0.9913
  224DG      H7 5136   0.772   3.038   2.823 -0.0681  1.7096  1.4017
  224DG      H8 5137   0.782   3.195   2.743  0.1309 -0.1123 -2.7281
  224DG      O9 5138   0.644   2.901   3.367  0.0185  0.1516 -0.0437
  224DG     O10 5139   0.870   3.186   2.923 -0.3546  0.3210  0.1165
  224DG     C11 5140   0.598   3.037   3.363 -0.5204 -0.3537 -0.0748
  224DG     C12 5141   0.921   3.101   3.020 -0.2007  0.5806 -0.0699
  224DG     H13 5142   0.547   3.064   3.457 -0.0260 -2.1916  1.5105
  224DG     H14 5143   0.520   3.044   3.280  0.6588  0.1290 -1.8603
  224DG     H15 5144   1.033   3.097   3.008  0.6113 -1.3417 -0.7472
  224DG     H16 5145   0.905   2.985   3.011  1.5290 -0.1460 -1.3753
  224DG     C17 5146   0.708   3.133   3.321 -0.5414 -0.4050  0.3105
  224DG     C18 5147   0.889   3.146   3.161 -0.4287 -0.4055 -0.1487
  224DG     O19 5148   0.755   3.098   3.196  0.1872 -0.5065 -0.2024
  224DG     H20 5149   0.784   3.142   3.404  1.1909 -1.0179 -0.0873
  224DG     H21 5150   0.661   3.225   3.303  0.2288  2.2798 -1.6815
  224DG     H22 5151   0.961   3.110   3.234  1.5942  2.6608 -2.3289
  224DG     H23 5152   0.890   3.255   3.150  0.3248  1.9313 -0.2361
  225DG      C1 5153   2.410   4.654   1.252  0.3756  0.2912  0.0848
  225DG      C2 5154   2.366   4.320   2.070 -0.0814 -0.5177  0.4255
  225DG      H3 5155   2.307   4.653   1.221 -1.6277  0.4142 -2.2845
  225DG      H4 5156   2.452   4.556   1.239 -1.5676 -0.2832  0.1973
  225DG      H5 5157   2.472   4.720   1.192  1.1693  0.1199 -2.0469
  225DG      H6 5158   2.340   4.213   2.066  1.7743  0.4760 -2.7216
  225DG      H7 5159   2.470   4.328   2.094 -0.2990 -0.9548 -2.0828
  225DG      H8 5160   2.316   4.362   2.158 -1.0235  0.8760  0.3603
  225DG      O9 5161   2.405   4.695   1.389 -0.0286 -0.0252  0.0327
  225DG     O10 5162   2.332   4.383   1.948  0.0747 -0.5195 -0.3158
  225DG     C11 5163   2.346   4.596   1.467  0.0681 -0.1692  0.1329
  225DG     C12 5164   2.404   4.332   1.838 -0.3317 -0.9930 -0.3639
  225DG     H13 5165   2.377   4.489   1.443  0.8728  1.6005  1.1102
  225DG     H14 5166   2.239   4.604   1.454 -0.4316 -1.4019  1.6857
  225DG     H15 5167   2.340   4.270   1.790 -0.1235  0.6881 -0.7251
  225DG     H16 5168   2.488   4.266   1.861  0.3935  1.8089 -1.2333
  225DG     C17 5169   2.390   4.628   1.608  0.5456  0.3340  0.2592
  225DG     C18 5170   2.452   4.442   1.741 -0.1165  0.5403 -0.3869
  225DG     O19 5171   2.351   4.527   1.705 -0.0737  0.0085  0.2821
  225DG     H20 5172   2.346   4.726   1.637  0.2599 -0.3500  0.6342
  225DG     H21 5173   2.494   4.640   1.618  1.3449 -0.0786  0.6354
  225DG     H22 5174   2.533   4.497   1.790 -1.5207 -1.0489 -0.0981
  225DG     H23 5175   2.504   4.396   1.652  2.3418  2.0017 -1.8421
  226DG      C1 5176   0.771   2.620   0.063  0.3750  0.0432 -0.9018
  226DG      C2 5177   0.404   2.815   0.609  0.7218  0.3040 -0.0734
  226DG      H3 5178   0.684   2.675   0.027  1.6500 -0.7642 -1.1986
  226DG      H4 5179   0.815   2.539   0.006  0.0312 -2.8158  0.9997
  226DG      H5 5180   0.843   2.698   0.066 -1.0052  2.6234  0.1247
  226DG      H6 5181   0.444   2.916   0.594  0.0781  1.0089 -0.0607
  226DG      H7 5182   0.307   2.813   0.566 -2.6521  0.4941 -0.4753
  226DG      H8 5183   0.396   2.787   0.710  0.2196 -0.1693  1.3804
  226DG      O9 5184   0.752   2.557   0.191  0.3248 -0.2340  0.2045
  226DG     O10 5185   0.474   2.714   0.532  0.1283 -0.6712  0.5067
  226DG     C11 5186   0.662   2.451   0.169 -0.4484 -0.1949  0.4733
  226DG     C12 5187   0.432   2.580   0.572 -0.6515  0.0032  0.2240
  226DG     H13 5188   0.711   2.371   0.112  1.4321  0.2786  1.2339
  226DG     H14 5189   0.585   2.484   0.101 -1.5237  0.2382  2.3507
  226DG     H15 5190   0.337   2.555   0.539  1.6980  1.0528  1.6401
  226DG     H16 5191   0.438   2.574   0.677 -3.1495 -1.0267 -2.8094
  226DG     C17 5192   0.604   2.390   0.295  0.3553 -0.1671 -0.0425
  226DG     C18 5193   0.527   2.480   0.509 -0.2916 -0.3487  0.3958
  226DG     O19 5194   0.549   2.502   0.371 -0.2449  0.1284  0.3187
  226DG     H20 5195   0.686   2.344   0.345  0.9006  0.9356  1.2968
  226DG     H21 5196   0.532   2.314   0.258  1.6067  1.0980 -5.2415
  226DG     H22 5197   0.621   2.500   0.555 -1.5166  0.5962 -1.8066
  226DG     H23 5198   0.500   2.379   0.536 -2.5210  1.1602 -0.9514
  227DG      C1 5199   4.836   4.804   1.780  0.4088  0.2314 -0.2479
  227DG      C2 5200   4.950   4.791   1.199 -1.0242  0.0370 -0.3828
  227DG      H3 5201   4.870   4.703   1.748  1.9566 -2.2632  0.3440
  227DG      H4 5202   4.729   4.814   1.767  0.5316 -1.9735 -0.0403
  227DG      H5 5203   4.847   4.818   1.891 -0.6031 -0.8645  0.7513
  227DG      H6 5204   5.014   4.701   1.180  2.4143  0.2084 -2.4944
  227DG      H7 5205   4.843   4.766   1.189 -1.4173  0.2025 -0.9437
  227DG      H8 5206   4.955   4.863   1.117  2.7913  0.2597 -2.1423
  227DG      O9 5207   4.913   4.899   1.709  0.0714  0.1760  0.6274
  227DG     O10 5208   4.977   4.853   1.325  0.0146  0.5239  0.2854
  227DG     C11 5209   5.034   4.930   1.768  0.1153 -0.6080  0.9655
  227DG     C12 5210   5.112   4.884   1.345  0.9187  0.4405 -0.7131
  227DG     H13 5211   5.088   4.835   1.761  0.4140  1.7968 -2.5788
  227DG     H14 5212   5.030   4.976   1.857  1.5172  1.1527 -2.9157
  227DG     H15 5213   5.138   4.980   1.294 -0.2160  0.1875  0.7752
  227DG     H16 5214   5.179   4.814   1.286 -0.1964  1.4900  1.8756
  227DG     C17 5215   5.104   5.031   1.674 -1.0570 -0.0905 -0.1896
  227DG     C18 5216   5.134   4.892   1.494  0.6661 -0.8390  0.3564
  227DG     O19 5217   5.070   5.014   1.543  0.4025  0.0481 -0.0660
  227DG     H20 5218   5.216   5.037   1.677  3.1129  3.2573 -3.7416
  227DG     H21 5219   5.073   5.130   1.707  0.2749 -3.3234 -1.2978
  227DG     H22 5220   5.095   4.802   1.546 -2.0460 -1.1293 -0.0327
  227DG     H23 5221   5.234   4.903   1.514  0.1934 -1.4364 -1.9287
  228DG      C1 5222   2.558   4.832   0.860 -0.4737  0.7430 -0.0643
  228DG      C2 5223   1.873   5.308   0.920  0.5963  0.1562 -0.2379
  228DG      H3 5224   2.635   4.821   0.778 -0.9934 -2.7459  0.4486
  228DG      H4 5225   2.551   4.727   0.897  0.1681 -1.3173 -0.6690
  228DG      H5 5226   2.583   4.905   0.939 -1.3117  2.5847  0.6024
  228DG      H6 5227   1.857   5.398   0.978 -1.8631  2.3946 -1.5652
  228DG      H7 5228   1.810   5.327   0.830  1.4581  1.2982 -0.7458
  228DG      H8 5229   1.833   5.228   0.981  0.1651 -0.0519 -0.3646
  228DG      O9 5230   2.438   4.898   0.816  0.3354  0.5574  0.8638
  228DG     O10 5231   2.004   5.278   0.881  0.1619 -0.3334 -0.0173
  228DG     C11 5232   2.467   5.016   0.732  0.0065  0.1809 -0.4192
  228DG     C12 5233   2.002   5.169   0.784 -0.5918 -0.0356  0.0063
  228DG     H13 5234   2.546   5.005   0.653 -1.7017 -1.4735  0.8079
  228DG     H14 5235   2.508   5.091   0.791 -0.8108 -1.1559  2.0839
  228DG     H15 5236   1.915   5.186   0.716 -1.3997 -0.3167  2.1592
  228DG     H16 5237   1.971   5.072   0.835  0.3877 -0.5095  2.0212
  228DG     C17 5238   2.338   5.064   0.674 -0.2699 -0.1995  0.1970
  228DG     C18 5239   2.134   5.163   0.707  0.0641  1.1256  0.2170
  228DG     O19 5240   2.233   5.077   0.763 -0.0204  0.1386 -0.7192
  228DG     H20 5241   2.305   5.002   0.593  2.0666 -2.4025  0.0155
  228DG     H21 5242   2.368   5.157   0.625  2.0379 -2.2995 -1.1795
  228DG     H22 5243   2.108   5.143   0.595  0.7421  0.5438 -1.0111
  228DG     H23 5244   2.177   5.265   0.700 -0.0137 -2.0838  2.0647
  229DG      C1 5245   4.374   3.396   1.933  0.5545 -0.4176  0.2560
  229DG      C2 5246   4.170   2.811   1.743 -0.0638 -0.0312 -0.1159
  229DG      H3 5247   4.395   3.424   1.832 -0.0756 -0.8951  0.2423
  229DG      H4 5248   4.420   3.475   1.977  2.2821  0.7343 -2.0502
  229DG      H5 5249   4.267   3.393   1.953 -1.1782  1.6406  1.6204
  229DG      H6 5250   4.183   2.705   1.735 -0.2065 -1.4300 -1.5594
  229DG      H7 5251   4.072   2.835   1.780  0.6492  0.8681  0.3108
  229DG      H8 5252   4.184   2.856   1.647  1.2891 -1.5944 -0.9216
  229DG      O9 5253   4.445   3.270   1.943 -0.3112 -0.0434  0.1153
  229DG     O10 5254   4.280   2.861   1.830 -0.4977 -0.6096  0.3250
  229DG     C11 5255   4.440   3.227   2.081  0.2079 -0.1470 -0.4346
  229DG     C12 5256   4.301   2.787   1.954  0.0429 -0.1697 -0.7096
  229DG     H13 5257   4.335   3.239   2.112 -0.5913 -0.0139  2.4425
  229DG     H14 5258   4.505   3.288   2.147 -1.7515  0.4690  0.3519
  229DG     H15 5259   4.340   2.685   1.935  1.2139  2.9908 -2.1744
  229DG     H16 5260   4.203   2.777   2.001  0.5245  0.8930  0.8426
  229DG     C17 5261   4.464   3.079   2.108 -0.8739 -0.3985  0.2764
  229DG     C18 5262   4.403   2.866   2.040  0.1338  0.1600 -0.6542
  229DG     O19 5263   4.371   3.004   2.034  0.6274 -0.3933  0.0865
  229DG     H20 5264   4.448   3.069   2.215 -0.6405  0.4137 -0.4244
  229DG     H21 5265   4.568   3.059   2.076  0.4270 -0.4806 -2.7656
  229DG     H22 5266   4.396   2.828   2.143 -0.1206 -1.8786 -0.0874
  229DG     H23 5267   4.513   2.847   2.011 -0.9056  1.4388 -2.6453
  230DG      C1 5268   2.678   4.462   0.237  0.8751  0.4522 -0.3430
  230DG      C2 5269   3.111   4.742  -0.434 -0.0129  0.2590  0.8608
  230DG      H3 5270   2.679   4.352   0.235 -2.1476 -0.6439 -0.2278
  230DG      H4 5271   2.585   4.508   0.198 -0.7238  1.4007 -0.1259
  230DG      H5 5272   2.687   4.493   0.345  0.8524  2.5310  2.8062
  230DG      H6 5273   3.137   4.635  -0.460  3.4610  1.0049  2.9441
  230DG      H7 5274   3.150   4.797  -0.516 -0.4606 -0.6286  1.9865
  230DG      H8 5275   3.161   4.773  -0.340 -1.8674 -0.6183  1.7096
  230DG      O9 5276   2.783   4.509   0.161 -0.1924  0.1986  0.1351
  230DG     O10 5277   2.972   4.739  -0.421  0.3199 -0.3189 -0.2650
  230DG     C11 5278   2.796   4.653   0.137 -0.9967  0.4777 -0.4066
  230DG     C12 5279   2.931   4.649  -0.314 -0.0075 -0.0317 -0.1871
  230DG     H13 5280   2.788   4.707   0.236 -0.9365  2.6446  2.1881
  230DG     H14 5281   2.707   4.687   0.073  1.0937  2.8318 -1.2221
  230DG     H15 5282   2.970   4.542  -0.325  0.3718  0.1501  0.6030
  230DG     H16 5283   2.824   4.646  -0.312 -0.8055  0.6185  0.7110
  230DG     C17 5284   2.919   4.692   0.060  0.5139 -0.0380  0.0384
  230DG     C18 5285   2.968   4.704  -0.184  1.0270 -0.3311 -0.2992
  230DG     O19 5286   2.907   4.634  -0.073 -0.4977 -0.1672 -0.5120
  230DG     H20 5287   3.013   4.657   0.103  0.0094 -0.2307 -0.9364
  230DG     H21 5288   2.924   4.797   0.063 -1.3900 -1.2110 -1.5471
  230DG     H22 5289   3.075   4.712  -0.158 -1.4455  0.2224  1.3767
  230DG     H23 5290   2.938   4.802  -0.179  1.2801 -0.5578 -4.1690
  231DG      C1 5291   0.470   4.354   1.905 -0.2311 -0.8255  0.7777
  231DG      C2 5292   0.547   4.635   1.326  0.0151 -0.0592  0.4767
  231DG      H3 5293   0.362   4.350   1.883 -1.3083  2.8515 -0.7799
  231DG      H4 5294   0.485   4.341   2.010  0.5018  3.7992 -0.3152
  231DG      H5 5295   0.530   4.269   1.869 -0.6833 -1.3134  1.2734
  231DG      H6 5296   0.506   4.701   1.252  1.5431 -0.6503 -1.2394
  231DG      H7 5297   0.654   4.625   1.301 -2.7766  2.6329  0.6294
  231DG      H8 5298   0.523   4.530   1.319  1.1516 -0.6433  1.9927
  231DG      O9 5299   0.539   4.469   1.857 -0.1484  0.1286  1.0615
  231DG     O10 5300   0.532   4.667   1.464 -0.2051 -0.1803  0.4532
  231DG     C11 5301   0.506   4.591   1.921 -1.0095 -0.7780  0.0773
  231DG     C12 5302   0.594   4.782   1.501  0.0868  0.2408  0.3790
  231DG     H13 5303   0.525   4.595   2.025 -0.7038 -3.0439  3.3587
  231DG     H14 5304   0.403   4.611   1.907  0.4691 -0.4353 -2.6152
  231DG     H15 5305   0.553   4.868   1.447  2.1638  0.0845  1.0122
  231DG     H16 5306   0.705   4.784   1.471  2.0948 -0.5332 -0.7478
  231DG     C17 5307   0.581   4.707   1.860  0.7340  0.6141 -0.2857
  231DG     C18 5308   0.553   4.816   1.646 -0.6644  0.4041 -0.0402
  231DG     O19 5309   0.573   4.692   1.722  0.7585 -0.3157 -0.2167
  231DG     H20 5310   0.684   4.718   1.894  0.7136 -0.5526  0.3596
  231DG     H21 5311   0.517   4.791   1.893 -0.1526  0.0162 -0.4083
  231DG     H22 5312   0.617   4.894   1.677  1.1968  0.7359 -1.2753
  231DG     H23 5313   0.448   4.859   1.657  1.6016  0.5930 -0.2049
  232DG      C1 5314   2.247   1.872   0.075 -0.8753 -0.5309 -0.1308
  232DG      C2 5315   2.183   2.551   0.241 -0.5596 -0.5233  0.2304
  232DG      H3 5316   2.237   1.855   0.177  0.3329  1.6887 -0.6564
  232DG      H4 5317   2.345   1.911   0.059  0.7840  2.3900  0.0121
  232DG      H5 5318   2.237   1.788   0.005 -0.6681  0.5596 -2.0949
  232DG      H6 5319   2.138   2.646   0.224  2.7108 -1.9114  2.7545
  232DG      H7 5320   2.175   2.517   0.347  0.3568  1.4538 -2.5727
  232DG      H8 5321   2.291   2.551   0.213 -0.7621 -1.0093  0.3620
  232DG      O9 5322   2.161   1.980   0.028 -0.0258  0.9251 -0.0767
  232DG     O10 5323   2.127   2.447   0.162 -0.2527  0.4493 -0.0236
  232DG     C11 5324   2.022   1.978   0.059  0.3399  0.0245  0.6158
  232DG     C12 5325   1.997   2.400   0.223 -0.1937 -0.1108  0.1416
  232DG     H13 5326   1.964   1.884   0.038 -0.5708 -1.9548  1.1999
  232DG     H14 5327   1.961   2.050   0.003 -0.8374  1.5925  0.5727
  232DG     H15 5328   1.922   2.374   0.150  0.4466  0.4375  1.7441
  232DG     H16 5329   1.956   2.466   0.295  1.5591  0.9591 -0.1521
  232DG     C17 5330   1.997   2.039   0.195  0.2093 -0.5545  0.5512
  232DG     C18 5331   2.027   2.266   0.288  0.3091  0.2302  0.6231
  232DG     O19 5332   2.050   2.170   0.183  0.0508  0.4185 -0.7792
  232DG     H20 5333   2.030   1.967   0.274  0.1102 -0.2847 -1.4414
  232DG     H21 5334   1.896   2.059   0.213 -1.6517 -1.2938  0.1547
  232DG     H22 5335   2.100   2.270   0.364 -3.0151 -1.6505 -0.4537
  232DG     H23 5336   1.937   2.242   0.343 -0.1073  2.6153  1.9697
  233DG      C1 5337   4.260   3.309   3.271  0.2094  0.6004  0.1892
  233DG      C2 5338   4.061   2.714   3.019  0.2541 -0.5205 -0.0076
  233DG      H3 5339   4.233   3.410   3.265 -1.0408 -0.7656 -0.0384
  233DG      H4 5340   4.364   3.317   3.262  0.2647 -2.1479 -1.2919
  233DG      H5 5341   4.221   3.266   3.362  0.8218  1.8635  1.2569
  233DG      H6 5342   4.065   2.637   3.098  0.5662  2.2568  0.0929
  233DG      H7 5343   3.986   2.793   3.040 -3.1940 -0.0674 -0.9254
  233DG      H8 5344   4.014   2.677   2.927  0.7226  0.5712 -3.1326
  233DG      O9 5345   4.196   3.247   3.158 -1.0776 -0.6578 -0.1427
  233DG     O10 5346   4.187   2.778   3.012  0.2927  0.0291 -0.0873
  233DG     C11 5347   4.246   3.294   3.037 -0.4764  0.4413  0.1782
  233DG     C12 5348   4.217   2.845   2.884  0.5309  0.0295 -0.2486
  233DG     H13 5349   4.357   3.271   3.028 -0.8044 -3.1013  2.3757
  233DG     H14 5350   4.237   3.394   3.014 -3.3572  0.4189 -0.8578
  233DG     H15 5351   4.183   2.779   2.806  0.3865  2.4441  2.0441
  233DG     H16 5352   4.320   2.848   2.881  0.1757 -1.8837  0.5710
  233DG     C17 5353   4.180   3.210   2.933  0.0049 -0.8403  0.0409
  233DG     C18 5354   4.160   2.984   2.859 -0.3653  0.5375  0.0209
  233DG     O19 5355   4.213   3.076   2.964 -0.0047 -0.4404  0.1080
  233DG     H20 5356   4.217   3.230   2.828 -2.3206 -0.6016  2.3404
  233DG     H21 5357   4.074   3.215   2.932  0.0175 -0.4559  0.1842
  233DG     H22 5358   4.186   3.012   2.755  1.7248  1.4155 -1.7507
  233DG     H23 5359   4.046   2.994   2.860 -1.1491 -1.6415 -1.5765
  234DG      C1 5360   0.589   2.049   4.405 -0.9016 -0.3548 -0.4385
  234DG      C2 5361   0.762   1.481   3.856 -0.3537 -0.6563  0.5487
  234DG      H3 5362   0.565   2.015   4.504 -0.2868  0.4010  2.3693
  234DG      H4 5363   0.562   2.154   4.408 -1.1214 -0.0524  0.0225
  234DG      H5 5364   0.698   2.040   4.410  0.4801 -4.4800  1.9718
  234DG      H6 5365   0.746   1.377   3.887 -2.8439  0.0922 -0.9550
  234DG      H7 5366   0.711   1.496   3.760  0.6254 -2.1085 -0.0407
  234DG      H8 5367   0.869   1.503   3.839 -0.7414  1.0919  1.2086
  234DG      O9 5368   0.515   1.977   4.302  0.1012 -0.0706 -0.2162
  234DG     O10 5369   0.704   1.565   3.958  0.1981 -0.0076 -0.3673
  234DG     C11 5370   0.507   1.843   4.344  0.0660 -0.1010  0.2795
  234DG     C12 5371   0.750   1.700   3.986  0.0477  0.4414  0.2883
  234DG     H13 5372   0.431   1.837   4.427 -2.4812 -2.6723 -0.3078
  234DG     H14 5373   0.603   1.799   4.379  1.1130  1.7767  2.7369
  234DG     H15 5374   0.769   1.748   3.893 -0.6402  2.8095 -0.0079
  234DG     H16 5375   0.842   1.697   4.045  0.3628 -0.4366  0.7602
  234DG     C17 5376   0.463   1.757   4.224 -0.3677 -0.6168 -0.0253
  234DG     C18 5377   0.638   1.774   4.059  0.1115 -0.3155  0.4007
  234DG     O19 5378   0.568   1.693   4.152  0.1270 -0.7429 -0.0839
  234DG     H20 5379   0.394   1.804   4.153 -1.7079 -1.3803  0.3936
  234DG     H21 5380   0.407   1.673   4.266 -0.6072  3.6745 -0.8935
  234DG     H22 5381   0.674   1.867   4.092 -1.9958 -0.6732 -1.5234
  234DG     H23 5382   0.568   1.808   3.977  0.4258  2.2845 -1.0921
  235DG      C1 5383   4.070   0.475   2.239 -0.4323  0.0445  0.1546
  235DG      C2 5384   4.353  -0.139   2.215  0.6940  1.0508 -0.1931
  235DG      H3 5385   4.054   0.450   2.134 -0.1350 -1.2475 -3.8092
  235DG      H4 5386   4.048   0.580   2.251 -0.3690  0.6841  2.5262
  235DG      H5 5387   4.001   0.419   2.300  0.0841 -2.7554 -1.4731
  235DG      H6 5388   4.334  -0.161   2.109  0.0917  1.5565 -2.5729
  235DG      H7 5389   4.441  -0.205   2.234 -0.0276 -1.2285 -1.1800
  235DG      H8 5390   4.264  -0.173   2.282 -0.5761  0.5637  2.3603
  235DG      O9 5391   4.195   0.430   2.272  0.2483 -0.0975  0.0032
  235DG     O10 5392   4.391  -0.006   2.248  0.0105  0.1265  0.5462
  235DG     C11 5393   4.224   0.456   2.407  0.9639 -0.2142  0.1497
  235DG     C12 5394   4.416   0.011   2.383 -0.1184 -0.0246 -0.1834
  235DG     H13 5395   4.146   0.427   2.476 -0.9248  0.4620 -0.5236
  235DG     H14 5396   4.236   0.559   2.433 -0.9225  0.3660  0.9803
  235DG     H15 5397   4.500  -0.053   2.413  2.3534 -2.2393 -0.6007
  235DG     H16 5398   4.332  -0.016   2.452  2.9121 -2.3421 -2.3855
  235DG     C17 5399   4.346   0.372   2.442  0.4796  0.6507 -0.1396
  235DG     C18 5400   4.461   0.163   2.408 -0.1940 -0.2430 -0.4687
  235DG     O19 5401   4.344   0.243   2.386  0.3141 -0.1956  0.2975
  235DG     H20 5402   4.351   0.358   2.552  2.4648  0.1415  1.5202
  235DG     H21 5403   4.438   0.425   2.418  1.6981 -1.1901 -1.3792
  235DG     H22 5404   4.502   0.184   2.510 -0.7456  0.9193  2.2774
  235DG     H23 5405   4.536   0.202   2.335 -0.7614  0.3362  0.8680
  236DG      C1 5406   2.540   0.076   0.861 -0.2004 -0.2396  0.2657
  236DG      C2 5407   2.474  -0.435   1.312  0.4966 -0.5671 -0.2598
  236DG      H3 5408   2.647   0.074   0.870  0.8872 -0.6442  1.0380
  236DG      H4 5409   2.513   0.176   0.878 -1.8871  1.0676 -1.5234
  236DG      H5 5410   2.523   0.049   0.755  1.5026 -2.0302  1.4415
  236DG      H6 5411   2.580  -0.422   1.345  0.2830 -1.6509  0.7347
  236DG      H7 5412   2.404  -0.364   1.363 -0.8907  0.8126  0.8116
  236DG      H8 5413   2.443  -0.538   1.347  0.7785 -1.8143 -0.3765
  236DG      O9 5414   2.482  -0.022   0.943 -0.2812  0.1740 -0.2182
  236DG     O10 5415   2.468  -0.436   1.174  0.2225  0.1769 -0.1339
  236DG     C11 5416   2.338  -0.028   0.922  0.3828  0.4525 -0.3717
  236DG     C12 5417   2.339  -0.451   1.115 -0.1493  0.1825 -0.3020
  236DG     H13 5418   2.318  -0.089   0.832  1.1698  0.5147 -0.4534
  236DG     H14 5419   2.292   0.063   0.900 -0.7447 -0.0027 -1.1876
  236DG     H15 5420   2.288  -0.530   1.162  1.1778 -1.7550 -1.0083
  236DG     H16 5421   2.355  -0.487   1.013  2.5409  0.2082  0.7222
  236DG     C17 5422   2.283  -0.099   1.041  0.0237  0.2743 -0.0366
  236DG     C18 5423   2.255  -0.325   1.124 -0.5980  0.1166 -0.0280
  236DG     O19 5424   2.327  -0.230   1.045  0.0357  0.5349 -0.2279
  236DG     H20 5425   2.178  -0.100   1.038  2.8993  0.1805  0.7571
  236DG     H21 5426   2.307  -0.051   1.133 -1.4163  0.1046 -0.7572
  236DG     H22 5427   2.168  -0.353   1.067 -0.2323  1.8031 -3.3508
  236DG     H23 5428   2.251  -0.285   1.225 -0.0723 -3.1882  0.4745
  237DG      C1 5429   3.556   4.038   1.047 -0.4704 -0.3011 -0.3292
  237DG      C2 5430   4.211   4.262   1.151  0.0161  1.3224 -0.2106
  237DG      H3 5431   3.476   3.973   1.022 -2.8741  2.3468  1.9678
  237DG      H4 5432   3.513   4.138   1.057  1.3555 -0.4276 -0.3406
  237DG      H5 5433   3.572   4.012   1.152  1.0363  3.7926  0.3845
  237DG      H6 5434   4.289   4.267   1.073 -0.8798 -0.7629 -0.9558
  237DG      H7 5435   4.132   4.339   1.148 -1.9362  0.0408  0.8777
  237DG      H8 5436   4.260   4.283   1.242  0.3300 -1.4521 -1.5049
  237DG      O9 5437   3.678   4.020   0.977  0.3733  0.2176 -0.0607
  237DG     O10 5438   4.155   4.129   1.148  0.2251  0.7153  0.6331
  237DG     C11 5439   3.739   3.895   0.981  0.3777 -0.1603  0.0540
  237DG     C12 5440   4.081   4.087   1.265 -0.5950 -0.2571  0.5332
  237DG     H13 5441   3.806   3.896   0.902 -0.6668  2.7254  3.1525
  237DG     H14 5442   3.662   3.816   0.965 -1.9509  0.2146 -2.2981
  237DG     H15 5443   4.022   4.165   1.297 -1.3190 -3.6769  1.4040
  237DG     H16 5444   4.147   4.084   1.355  1.5181  1.6090 -0.1729
  237DG     C17 5445   3.819   3.884   1.114  0.3788  0.1414  0.4373
  237DG     C18 5446   3.995   3.961   1.239 -0.2139 -0.6004 -0.2289
  237DG     O19 5447   3.924   3.982   1.124  0.0484  0.1840 -0.1541
  237DG     H20 5448   3.871   3.782   1.124 -0.8648  0.5065  0.1228
  237DG     H21 5449   3.759   3.887   1.205  2.2055  1.8090  1.0679
  237DG     H22 5450   4.064   3.874   1.233  2.7786  0.6275  1.6536
  237DG     H23 5451   3.942   3.955   1.329 -0.8135  0.3889  1.6273
  238DG      C1 5452   4.283   4.994   4.806  0.4098  0.1682 -0.4509
  238DG      C2 5453   4.283   4.435   5.136 -0.5498 -0.1132 -0.0970
  238DG      H3 5454   4.199   4.951   4.751  1.6509 -2.6058  1.0065
  238DG      H4 5455   4.318   5.088   4.759  2.3336 -0.0677  2.0223
  238DG      H5 5456   4.250   5.020   4.908  1.3414  1.8635 -1.8882
  238DG      H6 5457   4.338   4.354   5.177 -3.4582  0.8785 -0.0377
  238DG      H7 5458   4.238   4.480   5.227 -2.2869  0.3306  1.2265
  238DG      H8 5459   4.200   4.403   5.075  1.7060 -0.3682 -1.5212
  238DG      O9 5460   4.376   4.893   4.826  0.3754 -0.7745  0.5821
  238DG     O10 5461   4.391   4.510   5.068  0.5132  0.1090  0.0163
  238DG     C11 5462   4.489   4.941   4.891  0.5231  0.1621 -0.0665
  238DG     C12 5463   4.500   4.546   5.159  0.3479  0.3384  0.4295
  238DG     H13 5464   4.451   4.977   4.987  0.0357 -1.1479  1.4306
  238DG     H14 5465   4.535   5.028   4.835 -0.2003  1.7524 -1.2981
  238DG     H15 5466   4.554   4.463   5.194 -1.3641 -0.0503  2.1964
  238DG     H16 5467   4.456   4.604   5.237 -1.4864  1.2444  2.4689
  238DG     C17 5468   4.586   4.825   4.915 -0.1565  0.5812  0.6200
  238DG     C18 5469   4.591   4.645   5.078  0.2379  0.0635  0.2761
  238DG     O19 5470   4.515   4.724   4.983  0.1246  0.1301  0.3789
  238DG     H20 5471   4.671   4.866   4.971  1.3927  1.8851  0.2634
  238DG     H21 5472   4.631   4.781   4.823  0.4717  1.5855  1.8641
  238DG     H22 5473   4.646   4.708   5.145 -1.4349  1.3513 -3.2754
  238DG     H23 5474   4.668   4.596   5.020 -1.5849 -2.7637 -0.5471
  239DG      C1 5475   4.850   3.176   4.115 -0.1263 -0.7664  0.5554
  239DG      C2 5476   4.271   2.878   4.145  0.3067  0.9245 -0.6527
  239DG      H3 5477   4.805   3.248   4.182 -0.3660 -0.9948  2.3568
  239DG      H4 5478   4.946   3.205   4.073 -3.4010  1.1136 -0.8178
  239DG      H5 5479   4.866   3.080   4.175  0.2050 -2.5868 -1.3823
  239DG      H6 5480   4.159   2.858   4.148 -1.5156 -3.7643  2.2650
  239DG      H7 5481   4.315   2.795   4.189  0.0635  1.9835  0.9692
  239DG      H8 5482   4.290   2.958   4.211 -0.8437 -0.8287 -0.9313
  239DG      O9 5483   4.763   3.126   4.015  0.0270  0.0041  0.4156
  239DG     O10 5484   4.321   2.890   4.011 -0.1195 -0.7817 -0.1552
  239DG     C11 5485   4.700   3.231   3.934  0.4054  0.4338 -0.1843
  239DG     C12 5486   4.276   2.994   3.927 -0.5571 -0.6711  0.3379
  239DG     H13 5487   4.784   3.272   3.877  0.4803 -1.5164 -0.2901
  239DG     H14 5488   4.659   3.310   3.995 -1.1344 -3.0318  0.9484
  239DG     H15 5489   4.245   3.081   3.983 -0.7308  0.6783 -1.2280
  239DG     H16 5490   4.189   2.969   3.877 -1.2667  0.1354  2.5292
  239DG     C17 5491   4.598   3.160   3.844  0.3733 -0.8764 -0.0435
  239DG     C18 5492   4.400   3.037   3.841  0.1760  0.8985 -0.1812
  239DG     O19 5493   4.494   3.101   3.933  0.0978 -0.4870  0.0732
  239DG     H20 5494   4.656   3.086   3.790  2.7891  1.5126 -1.4567
  239DG     H21 5495   4.562   3.230   3.777 -0.2053 -0.2510 -0.4798
  239DG     H22 5496   4.449   2.955   3.785 -1.5289  0.1461 -0.2228
  239DG     H23 5497   4.358   3.099   3.758 -0.8681  1.5105 -1.9362
  240DG      C1 5498   3.045   0.381   2.337 -0.1200 -0.0659  0.2875
  240DG      C2 5499   2.355   0.951   2.452 -0.0572 -0.5351 -0.5879
  240DG      H3 5500   2.984   0.319   2.276  0.9502 -0.6116  1.5589
  240DG      H4 5501   3.119   0.316   2.395 -0.8875  0.9370  0.8338
  240DG      H5 5502   3.097   0.447   2.262  1.7383 -0.4389 -2.1378
  240DG      H6 5503   2.285   0.950   2.528  3.7083 -0.9038 -0.6763
  240DG      H7 5504   2.359   1.058   2.418 -1.6097 -0.7714 -1.0299
  240DG      H8 5505   2.313   0.891   2.373 -2.7967 -0.9331  0.1484
  240DG      O9 5506   2.970   0.444   2.441 -0.9321 -0.3876  0.1329
  240DG     O10 5507   2.477   0.883   2.486  0.5036  0.5060 -0.0524
  240DG     C11 5508   2.852   0.515   2.407 -0.1237 -0.3777  0.2072
  240DG     C12 5509   2.458   0.762   2.563  0.0033  0.6802  0.1609
  240DG     H13 5510   2.774   0.445   2.365 -1.2969  1.7973 -0.6433
  240DG     H14 5511   2.876   0.592   2.331 -2.1901  1.4002 -2.4228
  240DG     H15 5512   2.395   0.695   2.520  1.6467  1.8487  2.5084
  240DG     H16 5513   2.414   0.793   2.659  1.5972 -4.1186  2.1213
  240DG     C17 5514   2.778   0.562   2.534 -0.7305  0.0161 -0.3406
  240DG     C18 5515   2.594   0.699   2.607 -0.1907 -0.4856  0.8732
  240DG     O19 5516   2.651   0.610   2.498  0.2881  0.4629  0.2636
  240DG     H20 5517   2.839   0.635   2.575  1.9616 -1.2510 -1.9546
  240DG     H21 5518   2.763   0.484   2.601 -3.0110  0.3117 -0.6949
  240DG     H22 5519   2.658   0.781   2.630 -0.8332  1.9709  0.1752
  240DG     H23 5520   2.588   0.636   2.701  0.5807  0.8546  3.3551
  241DG      C1 5521   0.511   4.429   4.954  0.5760 -0.1481 -0.4453
  241DG      C2 5522   0.456   3.831   4.361  0.5967 -0.2485  0.3744
  241DG      H3 5523   0.533   4.538   4.977 -0.2986  0.8224  0.9667
  241DG      H4 5524   0.522   4.374   5.044  0.3887  1.0145 -1.6480
  241DG      H5 5525   0.400   4.431   4.934 -0.5637 -0.3188  0.5262
  241DG      H6 5526   0.402   3.859   4.270 -0.6754 -0.2367  0.4788
  241DG      H7 5527   0.511   3.742   4.342  1.0291 -1.0380  1.0302
  241DG      H8 5528   0.388   3.823   4.449 -2.0676 -0.6060  0.2888
  241DG      O9 5529   0.609   4.391   4.859  0.2792 -0.2691  0.3716
  241DG     O10 5530   0.539   3.936   4.403  0.2936  0.0630  0.0289
  241DG     C11 5531   0.564   4.271   4.798 -0.8480 -0.3941 -0.3564
  241DG     C12 5532   0.646   3.906   4.498  0.2963 -0.0661  0.3230
  241DG     H13 5533   0.485   4.291   4.734  0.7404  0.0594  0.6838
  241DG     H14 5534   0.537   4.197   4.873 -0.0082  2.1774 -2.1529
  241DG     H15 5535   0.725   3.854   4.448 -1.7583 -1.0849 -0.5889
  241DG     H16 5536   0.603   3.830   4.573  1.1246 -0.8399  1.5035
  241DG     C17 5537   0.672   4.207   4.715 -0.7392 -0.4530  0.6101
  241DG     C18 5538   0.713   4.020   4.576  0.2247 -0.7176 -0.0799
  241DG     O19 5539   0.615   4.096   4.634  0.1229 -0.0299  0.4102
  241DG     H20 5540   0.760   4.178   4.775  0.8761 -1.8628  0.9704
  241DG     H21 5541   0.708   4.280   4.635  2.9651 -0.6795 -0.8667
  241DG     H22 5542   0.786   3.979   4.652  1.7056 -1.2687 -1.6942
  241DG     H23 5543   0.765   4.081   4.504  0.1266  1.5938 -0.1451
  242DG      C1 5544   0.999   3.834   4.844 -0.7712  0.0288  0.1946
  242DG      C2 5545   1.391   4.009   5.476 -0.3716  0.4999  0.8750
  242DG      H3 5546   0.898   3.841   4.797 -1.8620  0.1865 -1.0702
  242DG      H4 5547   1.022   3.729   4.857  0.5940 -1.3086  0.9764
  242DG      H5 5548   1.057   3.885   4.772  1.8393  1.4235  0.5535
  242DG      H6 5549   1.472   3.996   5.401  0.3667 -0.6473 -0.3227
  242DG      H7 5550   1.395   4.096   5.531  3.6723 -3.1399  0.9184
  242DG      H8 5551   1.408   3.923   5.547  2.4903  1.2826  0.3778
  242DG      O9 5552   1.000   3.903   4.968  0.1512  0.4462  0.3471
  242DG     O10 5553   1.274   3.989   5.394  0.4772  0.4380 -0.1801
  242DG     C11 5554   0.953   3.814   5.064  0.1333  0.5973  0.0845
  242DG     C12 5555   1.286   3.871   5.324  0.0265  0.3154  0.0075
  242DG     H13 5556   1.018   3.727   5.083  0.2755  0.3682  3.0344
  242DG     H14 5557   0.858   3.759   5.030 -2.7540  0.6874 -3.2877
  242DG     H15 5558   1.344   3.794   5.375  0.0057  3.1563  0.3255
  242DG     H16 5559   1.322   3.889   5.215  0.1028  0.9778 -1.3382
  242DG     C17 5560   0.940   3.873   5.203  0.3811 -0.0017  0.0955
  242DG     C18 5561   1.145   3.822   5.320 -0.6480 -0.2986 -1.3742
  242DG     O19 5562   1.060   3.921   5.259 -0.4213 -0.5145  0.1859
  242DG     H20 5563   0.898   3.801   5.275 -2.8472  0.1730  1.0819
  242DG     H21 5564   0.869   3.955   5.187 -1.9334 -0.4056  0.2489
  242DG     H22 5565   1.146   3.719   5.270  1.1217  0.2944 -3.2961
  242DG     H23 5566   1.106   3.796   5.420 -0.1988 -0.0600 -1.6811
  243DG      C1 5567   2.254   1.970   3.638  0.2587 -0.0981  0.3724
  243DG      C2 5568   2.552   1.334   3.649 -0.0405 -0.6107  0.1048
  243DG      H3 5569   2.174   2.019   3.683  1.2265 -3.0589  1.3336
  243DG      H4 5570   2.222   1.936   3.543  0.2489 -1.3391  0.1026
  243DG      H5 5571   2.340   2.037   3.621  0.4131 -0.2198  1.2120
  243DG      H6 5572   2.658   1.347   3.629  1.4023  0.7604 -0.4861
  243DG      H7 5573   2.561   1.233   3.697  1.5457 -0.2192 -2.2771
  243DG      H8 5574   2.505   1.334   3.551  1.4234 -0.2103 -2.2358
  243DG      O9 5575   2.305   1.857   3.704 -0.3105  0.6637 -0.0444
  243DG     O10 5576   2.502   1.428   3.744  0.0878 -0.0409  0.0930
  243DG     C11 5577   2.325   1.882   3.839 -0.1314  0.0471 -0.2136
  243DG     C12 5578   2.591   1.465   3.848  0.5727  0.3859  1.2949
  243DG     H13 5579   2.235   1.898   3.890  1.5957  0.9168  0.9870
  243DG     H14 5580   2.391   1.971   3.862 -0.2702  2.6405 -1.2534
  243DG     H15 5581   2.686   1.491   3.803 -0.6123 -3.4234 -2.7145
  243DG     H16 5582   2.607   1.376   3.906  0.3483 -0.1799 -0.7978
  243DG     C17 5583   2.374   1.763   3.920  0.2795  0.9760 -0.2164
  243DG     C18 5584   2.519   1.575   3.932  0.3353  0.3946  0.0155
  243DG     O19 5585   2.456   1.673   3.850 -0.2318 -0.1423  0.1945
  243DG     H20 5586   2.281   1.709   3.961 -2.2650 -1.9933  0.3515
  243DG     H21 5587   2.423   1.807   4.009  2.4153  2.0404 -0.0851
  243DG     H22 5588   2.438   1.529   3.985  1.2984  4.0324 -0.6303
  243DG     H23 5589   2.597   1.613   3.989  0.6318 -1.7654 -1.6365
  244DG      C1 5590   0.298   4.120   3.631 -1.3439  0.1182 -0.2233
  244DG      C2 5591  -0.128   4.451   3.315 -0.5984 -0.1302  0.0096
  244DG      H3 5592   0.359   4.208   3.602 -1.1837 -0.6466  2.0246
  244DG      H4 5593   0.310   4.033   3.568 -0.0592  2.0197 -0.2245
  244DG      H5 5594   0.334   4.108   3.727  3.1372 -0.9867 -1.1193
  244DG      H6 5595  -0.192   4.500   3.247  0.0316 -0.5771  2.2312
  244DG      H7 5596  -0.116   4.509   3.410 -1.8266  1.2533  2.3422
  244DG      H8 5597  -0.031   4.449   3.266  3.0848 -0.0913  3.2696
  244DG      O9 5598   0.166   4.166   3.646  0.1654  0.4943  0.2092
  244DG     O10 5599  -0.154   4.313   3.331  0.0820 -0.5548  0.2060
  244DG     C11 5600   0.073   4.073   3.709 -0.4719  0.0743  0.3179
  244DG     C12 5601  -0.256   4.285   3.428 -0.1506 -0.5625 -0.1495
  244DG     H13 5602   0.109   4.035   3.809 -0.6486 -1.9759  1.7496
  244DG     H14 5603   0.068   3.987   3.646  0.4116  0.2345 -0.0276
  244DG     H15 5604  -0.297   4.188   3.399 -2.4513  1.0238 -0.6721
  244DG     H16 5605  -0.344   4.356   3.419  3.3062  2.1415 -2.1012
  244DG     C17 5606  -0.060   4.147   3.719  0.2119  0.0820 -0.3227
  244DG     C18 5607  -0.192   4.266   3.564 -0.1551 -0.8733  0.2738
  244DG     O19 5608  -0.075   4.188   3.582  0.2947  0.3909  0.6524
  244DG     H20 5609  -0.052   4.237   3.790  1.5177  1.8601  2.5985
  244DG     H21 5610  -0.141   4.074   3.740 -1.1942  0.2489 -0.9615
  244DG     H22 5611  -0.171   4.370   3.604  0.1985 -0.4696  0.0877
  244DG     H23 5612  -0.263   4.244   3.643  0.9971  1.6719  2.0659
  245DG      C1 5613   4.806   2.133   3.507  0.5558  0.0169 -0.5954
  245DG      C2 5614   5.083   2.735   3.176  0.0650 -0.2197  0.3351
  245DG      H3 5615   4.763   2.061   3.434  1.6532  0.1282  1.6823
  245DG      H4 5616   4.749   2.127   3.598 -1.0856 -3.0327 -1.0426
  245DG      H5 5617   4.905   2.094   3.535 -0.8040  2.4774  0.6817
  245DG      H6 5618   5.085   2.632   3.136  0.0528  1.5052 -0.7530
  245DG      H7 5619   5.047   2.805   3.105 -1.1276 -1.8084 -1.9607
  245DG      H8 5620   5.186   2.778   3.194  0.5020 -0.3394  1.6936
  245DG      O9 5621   4.819   2.259   3.444 -0.0563  0.8191 -0.2880
  245DG     O10 5622   5.011   2.734   3.298 -0.9274  0.5633  0.1200
  245DG     C11 5623   4.874   2.353   3.539  0.4036 -0.1372  0.4428
  245DG     C12 5624   4.878   2.706   3.282  0.5963 -0.0977  0.1208
  245DG     H13 5625   4.963   2.317   3.581  1.1747 -0.6781  1.8760
  245DG     H14 5626   4.796   2.378   3.612  3.2919  0.3001 -0.3206
  245DG     H15 5627   4.859   2.625   3.207  0.6793 -0.9173 -2.3632
  245DG     H16 5628   4.842   2.794   3.228 -1.6310  2.4540 -2.8410
  245DG     C17 5629   4.907   2.490   3.476  0.5203 -0.1500 -0.8310
  245DG     C18 5630   4.800   2.692   3.407  0.0093  0.1706  0.0106
  245DG     O19 5631   4.784   2.552   3.435  0.4321  0.6396 -0.5920
  245DG     H20 5632   4.970   2.486   3.393  2.2523  2.6042 -0.1561
  245DG     H21 5633   4.948   2.546   3.564  0.0139 -2.1721 -0.6457
  245DG     H22 5634   4.851   2.746   3.477  0.3689 -1.2590  0.1483
  245DG     H23 5635   4.704   2.735   3.414 -1.1739 -0.3382 -0.6481
  246DG      C1 5636   1.434   2.314   2.319 -0.1947 -0.5255 -0.3279
  246DG      C2 5637   1.198   2.198   1.733 -0.0814 -0.5630 -0.8843
  246DG      H3 5638   1.493   2.232   2.276  1.0937  0.4805 -1.6051
  246DG      H4 5639   1.393   2.277   2.412 -1.4334  2.3493  0.2913
  246DG      H5 5640   1.507   2.385   2.350 -1.2146 -0.9385 -2.5552
  246DG      H6 5641   1.129   2.112   1.718  1.6161  1.1834  0.1199
  246DG      H7 5642   1.207   2.255   1.637  2.2375  1.3797  0.7174
  246DG      H8 5643   1.306   2.148   1.746 -2.5006 -3.0078 -1.0814
  246DG      O9 5644   1.327   2.347   2.235 -0.0164  0.8006  0.2402
  246DG     O10 5645   1.173   2.276   1.851 -0.4554 -0.0809  0.3695
  246DG     C11 5646   1.244   2.459   2.275 -1.1774 -0.2535  0.0083
  246DG     C12 5647   1.087   2.385   1.835  0.4975 -0.1010 -0.3551
  246DG     H13 5648   1.305   2.547   2.258 -1.4962 -1.3228 -0.3834
  246DG     H14 5649   1.223   2.452   2.379 -0.7392  0.5804 -0.8476
  246DG     H15 5650   0.999   2.367   1.773  1.5306 -1.0786 -1.9983
  246DG     H16 5651   1.139   2.468   1.771  1.8708  0.3621 -1.1203
  246DG     C17 5652   1.118   2.465   2.195  0.0894 -0.3035 -0.1180
  246DG     C18 5653   1.045   2.444   1.974 -0.3109  0.2491 -0.0456
  246DG     O19 5654   1.158   2.444   2.057  0.5244  0.4402  0.2165
  246DG     H20 5655   1.060   2.552   2.206 -0.9854 -0.7609  2.9187
  246DG     H21 5656   1.059   2.379   2.232  0.6733 -1.7700  1.1115
  246DG     H22 5657   1.006   2.542   1.947 -0.4030  0.8480  0.7121
  246DG     H23 5658   0.964   2.386   2.016  0.9513  0.8264  5.3218
  247DG      C1 5659   2.483   1.785   1.136  0.5455 -0.1159  0.0284
  247DG      C2 5660   2.749   1.235   1.012 -0.4412 -0.1413 -0.0589
  247DG      H3 5661   2.431   1.731   1.217 -0.3208  1.5905  0.8142
  247DG      H4 5662   2.430   1.873   1.094 -0.5263 -0.2929  0.8806
  247DG      H5 5663   2.574   1.827   1.178 -0.9638  2.7051  1.3480
  247DG      H6 5664   2.808   1.288   1.083 -3.3372 -1.3516  0.8031
  247DG      H7 5665   2.757   1.127   1.024 -0.3488  1.1705 -3.0812
  247DG      H8 5666   2.791   1.260   0.915 -1.4598 -2.1684  2.0075
  247DG      O9 5667   2.512   1.699   1.028 -0.0457  0.1569 -0.2527
  247DG     O10 5668   2.616   1.283   1.006  0.0285 -0.2800 -0.0918
  247DG     C11 5669   2.399   1.656   0.951 -0.5098 -0.4299  0.0919
  247DG     C12 5670   2.536   1.259   1.124 -0.4348  0.1837 -0.5723
  247DG     H13 5671   2.438   1.630   0.851 -1.1771  0.7978  0.0214
  247DG     H14 5672   2.332   1.745   0.923 -0.8410  2.7464 -0.1841
  247DG     H15 5673   2.575   1.313   1.212 -0.2164 -2.6063 -0.7183
  247DG     H16 5674   2.518   1.155   1.150  0.4779 -1.9181 -1.8138
  247DG     C17 5675   2.327   1.527   1.011 -0.0470 -0.5422  0.1344
  247DG     C18 5676   2.399   1.312   1.095  0.3655 -0.4429  0.2786
  247DG     O19 5677   2.429   1.441   1.055 -0.3797 -0.0632  0.5344
  247DG     H20 5678   2.254   1.480   0.945  0.8843  0.9663  0.3544
  247DG     H21 5679   2.267   1.561   1.102 -1.3854  0.9124  2.6709
  247DG     H22 5680   2.351   1.255   1.022  0.2410 -0.9771  1.4666
  247DG     H23 5681   2.342   1.316   1.185  0.0733 -1.7922 -0.7404
  248DG      C1 5682   2.969   3.100   2.132  0.4743  0.0222  0.2542
  248DG      C2 5683   3.076   2.742   2.678  0.9185  0.0016  1.4795
  248DG      H3 5684   2.984   3.199   2.084 -1.0475  1.7050 -0.2790
  248DG      H4 5685   2.897   3.046   2.069 -1.3074 -0.3448  1.1957
  248DG      H5 5686   3.065   3.048   2.128 -0.6950 -0.2460  2.5008
  248DG      H6 5687   3.075   2.668   2.602  1.8830 -0.3474 -1.6250
  248DG      H7 5688   3.169   2.787   2.677 -0.3383  2.5632  1.2961
  248DG      H8 5689   3.045   2.709   2.779 -0.3978  1.3733 -0.1502
  248DG      O9 5690   2.922   3.112   2.265 -0.6163 -0.0210  0.0123
  248DG     O10 5691   2.994   2.852   2.637 -0.3940 -0.2510  0.0097
  248DG     C11 5692   2.784   3.080   2.276  0.7593 -0.3713  0.1801
  248DG     C12 5693   2.865   2.844   2.679  0.0731 -0.4469  0.3575
  248DG     H13 5694   2.754   2.984   2.232 -1.8581 -0.9810 -1.0340
  248DG     H14 5695   2.739   3.151   2.213  1.9638  0.8104  3.4049
  248DG     H15 5696   2.852   2.840   2.786  0.3239  0.0004  1.2527
  248DG     H16 5697   2.820   2.752   2.653 -0.5851  3.5305 -2.7102
  248DG     C17 5698   2.751   3.081   2.420  0.4359 -0.3756  0.1108
  248DG     C18 5699   2.797   2.966   2.623 -0.3510  0.1633 -0.0574
  248DG     O19 5700   2.819   2.977   2.485  0.1026 -0.2032  0.2169
  248DG     H20 5701   2.642   3.074   2.433 -1.6645 -0.2108 -0.9169
  248DG     H21 5702   2.764   3.179   2.467  0.3734  2.7964  3.9876
  248DG     H22 5703   2.689   2.957   2.640  1.5477  0.6778 -0.9644
  248DG     H23 5704   2.834   3.063   2.664 -0.0253 -2.6137  1.5706
  249DG      C1 5705   3.700   1.545   2.798  0.0108 -0.1229  0.4116
  249DG      C2 5706   4.054   2.129   2.651 -0.6254 -0.5488 -0.2758
  249DG      H3 5707   3.628   1.516   2.869  0.1580  2.5479 -0.0395
  249DG      H4 5708   3.794   1.487   2.783  2.8287 -2.0155  2.5997
  249DG      H5 5709   3.635   1.555   2.710  0.2928 -0.6900  0.4487
  249DG      H6 5710   4.026   2.096   2.552  0.9353 -2.3235  0.8410
  249DG      H7 5711   4.026   2.235   2.658 -2.0806  0.5031 -1.9978
  249DG      H8 5712   4.160   2.131   2.659  2.1309 -1.7082  1.2112
  249DG      O9 5713   3.751   1.675   2.834  0.3565 -0.0106  0.0340
  249DG     O10 5714   3.989   2.048   2.747  0.4216 -0.0479  0.0665
  249DG     C11 5715   3.829   1.670   2.952 -0.6679  0.1931 -0.4532
  249DG     C12 5716   4.013   2.100   2.877 -0.0424 -0.2840  0.0431
  249DG     H13 5717   3.925   1.642   2.922 -2.1630  1.3844  0.7754
  249DG     H14 5718   3.790   1.599   3.023  2.1319  2.3014 -0.6071
  249DG     H15 5719   3.987   2.208   2.884  0.3817 -1.9076 -2.7058
  249DG     H16 5720   4.118   2.084   2.908  1.0716 -2.5704  0.3843
  249DG     C17 5721   3.843   1.806   3.028  0.1966  0.1035 -0.7897
  249DG     C18 5722   3.935   2.014   2.975  0.5460  0.1996 -0.3944
  249DG     O19 5723   3.905   1.887   2.925 -0.5721 -0.4630 -0.5428
  249DG     H20 5724   3.912   1.797   3.109 -0.5256 -1.3455  1.1325
  249DG     H21 5725   3.749   1.840   3.067  2.3690  0.4384 -1.6306
  249DG     H22 5726   3.984   2.006   3.074 -1.7097 -1.1601  1.9055
  249DG     H23 5727   3.837   2.052   2.994  2.0937  0.8309  0.5372
  250DG      C1 5728   1.329   1.398   2.688  0.2181  0.0010 -0.1260
  250DG      C2 5729   1.287   1.096   3.495  0.2446  0.2698 -0.8517
  250DG      H3 5730   1.399   1.325   2.726  0.0154 -1.1142 -3.8804
  250DG      H4 5731   1.371   1.491   2.669 -0.3454 -1.4428  0.4312
  250DG      H5 5732   1.298   1.365   2.584 -0.6788 -0.6650  0.8360
  250DG      H6 5733   1.324   1.012   3.442 -0.6306  1.0901 -0.3631
  250DG      H7 5734   1.361   1.126   3.570  0.4660 -0.7651 -0.7710
  250DG      H8 5735   1.205   1.068   3.550  2.3576  0.9088 -1.1424
  250DG      O9 5736   1.215   1.402   2.770 -0.4539  0.1827  0.6676
  250DG     O10 5737   1.273   1.209   3.407  0.0203 -0.1849  0.0608
  250DG     C11 5738   1.237   1.447   2.901  0.1481  0.0167 -0.5056
  250DG     C12 5739   1.197   1.187   3.287 -0.0843 -0.3068  0.0474
  250DG     H13 5740   1.257   1.551   2.910  0.4085 -0.6451 -0.0014
  250DG     H14 5741   1.334   1.420   2.945 -1.3694  3.0721  0.9240
  250DG     H15 5742   1.097   1.204   3.327  0.1601 -1.1811  1.2789
  250DG     H16 5743   1.195   1.089   3.239  0.3170  2.2911  2.4389
  250DG     C17 5744   1.127   1.422   3.000  0.3326 -0.3357  0.2758
  250DG     C18 5745   1.220   1.304   3.187  0.2340 -0.0493  0.5668
  250DG     O19 5746   1.140   1.291   3.071  0.2026 -0.3056 -0.1076
  250DG     H20 5747   1.031   1.424   2.952 -3.0639  0.2046 -1.0821
  250DG     H21 5748   1.133   1.509   3.063 -0.7064 -0.8351 -0.5635
  250DG     H22 5749   1.193   1.399   3.235 -2.7120  0.5745 -0.0547
  250DG     H23 5750   1.324   1.307   3.149  0.6498  1.2296 -3.8107
  251DG      C1 5751   4.050   2.255   0.301 -0.0019 -0.2631 -0.2855
  251DG      C2 5752   3.824   2.392   1.060  0.2268  0.3798 -0.1607
  251DG      H3 5753   3.974   2.181   0.277  0.0814 -0.1534  1.7829
  251DG      H4 5754   4.148   2.249   0.256 -0.5604  3.1876 -0.4858
  251DG      H5 5755   4.013   2.355   0.295 -1.5711 -1.4453  0.5420
  251DG      H6 5756   3.786   2.490   1.047 -1.3299  2.7752 -0.4493
  251DG      H7 5757   3.745   2.321   1.059  0.5166  1.3973  0.4171
  251DG      H8 5758   3.864   2.382   1.162  1.0003  3.9867 -0.6916
  251DG      O9 5759   4.073   2.224   0.438  0.2850  0.0882 -0.4632
  251DG     O10 5760   3.925   2.341   0.973 -0.0825 -0.2812 -0.3794
  251DG     C11 5761   4.176   2.309   0.502 -0.1999 -0.3514 -0.3205
  251DG     C12 5762   3.894   2.365   0.834 -0.0345  0.2119  0.2087
  251DG     H13 5763   4.150   2.411   0.483  1.9610  2.2293  0.5763
  251DG     H14 5764   4.272   2.298   0.451 -0.9225 -0.6432  0.8674
  251DG     H15 5765   3.878   2.461   0.799  0.7314 -0.2767 -0.7271
  251DG     H16 5766   3.800   2.314   0.806 -1.2485 -2.8673  1.7921
  251DG     C17 5767   4.197   2.272   0.651 -0.5590 -0.0751  0.5190
  251DG     C18 5768   3.984   2.284   0.745 -0.3497  0.0414  0.7707
  251DG     O19 5769   4.114   2.343   0.744 -0.1558 -0.5912  0.3320
  251DG     H20 5770   4.300   2.301   0.669  1.8797 -0.8357 -0.0207
  251DG     H21 5771   4.198   2.163   0.656 -1.2779 -0.0522  1.4746
  251DG     H22 5772   3.996   2.184   0.787  1.5424  1.0688 -3.1053
  251DG     H23 5773   3.944   2.272   0.645 -1.2102  0.1098 -2.4231
  252DG      C1 5774   0.426   0.191   4.150 -0.2862 -0.5604 -0.5382
  252DG      C2 5775   0.472  -0.440   4.365 -0.8481 -0.1182 -0.3013
  252DG      H3 5776   0.525   0.154   4.107  0.2810  2.3731 -0.4240
  252DG      H4 5777   0.439   0.294   4.170  3.1551 -3.4799  2.2930
  252DG      H5 5778   0.354   0.181   4.076 -0.3471 -0.9028 -0.2907
  252DG      H6 5779   0.581  -0.426   4.364  0.9171  0.2556 -0.4272
  252DG      H7 5780   0.453  -0.519   4.440  0.6670  0.5930 -0.3488
  252DG      H8 5781   0.455  -0.468   4.260 -0.7561  1.8288  0.4808
  252DG      O9 5782   0.397   0.110   4.259 -0.0116 -0.0998  0.6407
  252DG     O10 5783   0.414  -0.317   4.406 -0.0768 -0.0515  0.3960
  252DG     C11 5784   0.360   0.180   4.376 -0.1690 -0.2107  0.4316
  252DG     C12 5785   0.433  -0.274   4.538  0.3781  0.4596 -0.0550
  252DG     H13 5786   0.276   0.254   4.365 -3.6831 -2.4064 -2.9917
  252DG     H14 5787   0.449   0.233   4.413 -0.2439  4.0468  1.7517
  252DG     H15 5788   0.539  -0.249   4.551 -4.3966 -1.0196 -0.2011
  252DG     H16 5789   0.406  -0.363   4.604 -3.2052  0.7679  2.7676
  252DG     C17 5790   0.320   0.076   4.476  0.7215 -0.3296 -0.8228
  252DG     C18 5791   0.345  -0.145   4.569 -0.3132 -0.0138 -0.1623
  252DG     O19 5792   0.391  -0.049   4.475 -0.1608  0.0535 -0.1717
  252DG     H20 5793   0.216   0.050   4.460 -2.3606  0.6639  0.6794
  252DG     H21 5794   0.315   0.126   4.581 -0.8198  0.7895  1.4835
  252DG     H22 5795   0.239  -0.173   4.570 -0.8107  1.3771  0.5393
  252DG     H23 5796   0.368  -0.111   4.672  0.6230 -0.3367 -0.0944
  253DG      C1 5797   0.883   4.524   1.697  0.2560  0.6084 -0.3940
  253DG      C2 5798   0.286   4.440   1.584  0.0013 -0.8720  0.1864
  253DG      H3 5799   0.824   4.594   1.744 -2.4744 -1.2243 -3.2119
  253DG      H4 5800   0.908   4.576   1.600  1.1729  1.8426 -4.0951
  253DG      H5 5801   0.977   4.512   1.742 -2.7703  2.2322  1.1018
  253DG      H6 5802   0.287   4.497   1.490  1.6694 -0.5999 -2.1035
  253DG      H7 5803   0.191   4.389   1.604  1.2508  1.8521 -0.1617
  253DG      H8 5804   0.299   4.514   1.664 -0.4870 -1.1346 -1.0011
  253DG      O9 5805   0.807   4.411   1.666  0.4374 -0.1407  0.3358
  253DG     O10 5806   0.402   4.361   1.591  0.4746  0.3733 -0.3607
  253DG     C11 5807   0.859   4.333   1.561 -0.0773 -0.1509  0.4750
  253DG     C12 5808   0.394   4.264   1.485  0.1018 -0.7472 -0.4371
  253DG     H13 5809   0.951   4.300   1.590  1.1933  2.6862 -2.1585
  253DG     H14 5810   0.870   4.402   1.475 -1.5862  1.3133  1.6597
  253DG     H15 5811   0.386   4.306   1.384 -0.5493 -1.1175 -3.3416
  253DG     H16 5812   0.302   4.200   1.493  0.7464  0.9467  0.4536
  253DG     C17 5813   0.757   4.222   1.527 -0.2128  0.2906 -0.3857
  253DG     C18 5814   0.521   4.190   1.493 -0.1504 -0.0998  0.3233
  253DG     O19 5815   0.632   4.281   1.492 -0.0629  0.1085 -0.2551
  253DG     H20 5816   0.741   4.170   1.619 -3.3438 -0.6451  3.6892
  253DG     H21 5817   0.805   4.165   1.444 -0.0279  1.4451 -0.2578
  253DG     H22 5818   0.519   4.116   1.577  0.3152 -2.7934  1.4243
  253DG     H23 5819   0.527   4.121   1.407  2.0073  0.4364 -1.6711
  254DG      C1 5820   1.898   3.386   3.858 -0.4512  0.7221 -0.7997
  254DG      C2 5821   2.539   3.559   3.742  0.7363  0.3305  0.2438
  254DG      H3 5822   1.848   3.450   3.931 -0.3719  1.3574  1.8887
  254DG      H4 5823   1.996   3.388   3.878 -0.6651 -0.9659 -1.8501
  254DG      H5 5824   1.859   3.287   3.874 -0.9557 -1.4709 -0.6084
  254DG      H6 5825   2.597   3.639   3.697 -0.4768 -1.6483  0.3568
  254DG      H7 5826   2.510   3.576   3.847 -0.5036  0.0261 -0.9266
  254DG      H8 5827   2.604   3.468   3.739  0.9004  0.7103 -4.5907
  254DG      O9 5828   1.869   3.437   3.733 -0.1241  0.8677 -0.0418
  254DG     O10 5829   2.427   3.529   3.666 -0.4904  0.5685  0.1457
  254DG     C11 5830   1.945   3.363   3.644  0.1277  0.0917  0.4343
  254DG     C12 5831   2.336   3.637   3.644  0.3227 -0.1980 -0.3233
  254DG     H13 5832   1.863   3.319   3.576 -2.1241 -0.5104 -4.0216
  254DG     H14 5833   2.000   3.282   3.689  1.4022  2.8693  0.7215
  254DG     H15 5834   2.382   3.732   3.606 -2.9776  1.8800  1.3939
  254DG     H16 5835   2.292   3.662   3.743 -0.9420  0.4314  0.8950
  254DG     C17 5836   2.040   3.443   3.555  0.2022 -0.0647  0.0409
  254DG     C18 5837   2.224   3.587   3.556  0.5666  0.4313 -0.6320
  254DG     O19 5838   2.145   3.489   3.629  0.5680 -0.0597 -0.5150
  254DG     H20 5839   1.989   3.522   3.505  0.3758  0.9802 -1.1821
  254DG     H21 5840   2.088   3.382   3.479  1.5692  1.8105  2.2326
  254DG     H22 5841   2.166   3.667   3.536 -0.1578  0.1173  0.1679
  254DG     H23 5842   2.261   3.542   3.462  0.0057 -1.8962 -1.5962
  255DG      C1 5843   2.982   2.742   2.161  0.4898 -0.1798  1.0555
  255DG      C2 5844   3.115   3.159   2.631 -0.0559  0.4429 -0.0873
  255DG      H3 5845   2.919   2.697   2.236  2.7975 -1.2589 -1.2085
  255DG      H4 5846   3.012   2.673   2.084  2.5696 -0.6839  3.6587
  255DG      H5 5847   2.921   2.817   2.108  0.6066  1.8074 -0.4028
  255DG      H6 5848   3.104   3.108   2.726 -0.8548 -1.3240 -0.5479
  255DG      H7 5849   3.153   3.260   2.658 -0.9796 -0.3037 -1.9718
  255DG      H8 5850   3.015   3.173   2.586 -2.9474 -1.7742  1.0022
  255DG      O9 5851   3.094   2.795   2.236 -0.2798  0.0183  0.2430
  255DG     O10 5852   3.193   3.091   2.537 -0.5131  0.2186 -0.4255
  255DG     C11 5853   3.168   2.694   2.303 -0.3278 -0.2606  0.0875
  255DG     C12 5854   3.310   3.037   2.598 -0.4730  0.7386  0.5883
  255DG     H13 5855   3.206   2.608   2.245  0.8736  0.3425 -2.1582
  255DG     H14 5856   3.117   2.650   2.388 -2.0637  1.6468 -0.5039
  255DG     H15 5857   3.287   2.985   2.687  0.8487  1.1936 -1.5969
  255DG     H16 5858   3.383   3.110   2.626 -0.2903 -1.5666  1.7747
  255DG     C17 5859   3.295   2.761   2.364  0.0596  0.0183 -0.7537
  255DG     C18 5860   3.368   2.946   2.496 -0.2340  0.6381  0.5402
  255DG     O19 5861   3.257   2.867   2.439  0.2830  0.0246  0.0202
  255DG     H20 5862   3.358   2.801   2.282  2.3113 -0.6055 -0.3702
  255DG     H21 5863   3.358   2.696   2.428 -0.2936 -0.8646 -2.0254
  255DG     H22 5864   3.423   2.999   2.421  0.4952  0.1344  1.2426
  255DG     H23 5865   3.446   2.884   2.537 -0.3383  0.3665  0.9280
  256DG      C1 5866   4.085   3.640   1.448 -0.2873 -0.3082  0.0565
  256DG      C2 5867   3.540   3.138   1.551  0.2141  0.0464  0.0164
  256DG      H3 5868   4.052   3.688   1.536  1.5389 -0.9922 -0.8318
  256DG      H4 5869   4.096   3.707   1.362  1.0086 -0.4851 -0.0462
  256DG      H5 5870   4.188   3.600   1.464  3.3296 -0.4665 -0.0415
  256DG      H6 5871   3.431   3.106   1.535 -2.1504  2.7998  1.0254
  256DG      H7 5872   3.590   3.050   1.603  2.4678 -1.1356 -1.3821
  256DG      H8 5873   3.543   3.229   1.609 -1.3623  0.6055 -0.0770
  256DG      O9 5874   4.006   3.526   1.417  0.4848  0.0592 -0.1154
  256DG     O10 5875   3.605   3.170   1.435  0.2742 -0.2962  0.1104
  256DG     C11 5876   3.868   3.553   1.392  0.5100 -0.5730  0.2670
  256DG     C12 5877   3.527   3.265   1.361  0.4813  0.6052 -0.5121
  256DG     H13 5878   3.846   3.613   1.303 -0.9889 -0.8097  0.8813
  256DG     H14 5879   3.827   3.606   1.477 -0.4102 -0.7285 -1.3271
  256DG     H15 5880   3.491   3.342   1.419  0.8916  0.9453  1.5283
  256DG     H16 5881   3.439   3.225   1.318  0.7688  2.9165 -1.5927
  256DG     C17 5882   3.803   3.414   1.366  0.9130 -0.2716 -1.1044
  256DG     C18 5883   3.612   3.331   1.251 -0.1918  0.9298 -0.2946
  256DG     O19 5884   3.679   3.443   1.300  0.1361 -0.4790 -0.1782
  256DG     H20 5885   3.801   3.355   1.452 -0.1770 -2.6329 -1.5406
  256DG     H21 5886   3.871   3.346   1.305 -1.2179  1.1123 -3.9120
  256DG     H22 5887   3.668   3.251   1.202 -0.3395 -2.2373 -2.3493
  256DG     H23 5888   3.545   3.385   1.182  0.1357 -2.6213  2.7619
  257DG      C1 5889   1.657   2.141   0.876  0.1203  0.0154 -0.1535
  257DG      C2 5890   2.144   2.516   1.280 -0.1616  0.5360  0.0058
  257DG      H3 5891   1.626   2.238   0.833  0.0601 -0.4990  0.9643
  257DG      H4 5892   1.581   2.117   0.954 -1.1378  1.7364  0.4873
  257DG      H5 5893   1.650   2.065   0.798  2.6054 -0.1128  0.3414
  257DG      H6 5894   2.090   2.605   1.274 -0.3629  0.2569  0.4114
  257DG      H7 5895   2.132   2.496   1.390 -0.5038 -1.3609  0.4076
  257DG      H8 5896   2.248   2.541   1.258 -1.4278 -2.4381 -0.9688
  257DG      O9 5897   1.785   2.152   0.941  0.2239 -0.3294 -0.5003
  257DG     O10 5898   2.100   2.399   1.206  0.2555 -0.2409 -0.0601
  257DG     C11 5899   1.851   2.034   0.956  0.1006  0.3598  1.2807
  257DG     C12 5900   2.150   2.270   1.253 -0.8154  0.1943 -0.2415
  257DG     H13 5901   1.851   1.977   0.865 -0.7384 -1.3437 -0.5192
  257DG     H14 5902   1.799   1.971   1.032  1.2909  1.9368  0.5470
  257DG     H15 5903   2.095   2.241   1.337 -0.8038 -1.6237  1.8603
  257DG     H16 5904   2.261   2.262   1.271 -0.2830 -1.4182  0.7677
  257DG     C17 5905   1.993   2.067   0.997 -0.9062 -0.1303  0.2381
  257DG     C18 5906   2.139   2.174   1.144  0.7271 -0.1563  0.1383
  257DG     O19 5907   2.004   2.164   1.098 -0.1945 -0.5803 -0.2981
  257DG     H20 5908   2.048   2.094   0.908 -1.0890  1.9238  0.9539
  257DG     H21 5909   2.043   1.973   1.036 -0.6468 -0.4080  3.0567
  257DG     H22 5910   2.191   2.210   1.054  3.0346 -0.1716 -1.7693
  257DG     H23 5911   2.182   2.079   1.175 -3.1779  0.8878 -0.8533
  258DG      C1 5912   2.231   2.993   5.483  0.0282 -0.1023  0.3175
  258DG      C2 5913   2.882   3.099   5.861 -0.0864 -0.8655 -0.3102
  258DG      H3 5914   2.143   2.936   5.509  0.8047  0.5099 -2.1980
  258DG      H4 5915   2.294   2.947   5.406  0.2526 -1.0316 -0.6564
  258DG      H5 5916   2.199   3.090   5.445  1.0556  1.0903  1.2090
  258DG      H6 5917   2.939   3.031   5.794  1.0777  0.9182 -1.3555
  258DG      H7 5918   2.880   3.205   5.835  0.2124  0.0054 -0.4310
  258DG      H8 5919   2.945   3.086   5.953  0.2319 -2.4601 -0.4742
  258DG      O9 5920   2.307   3.012   5.605 -0.1829  0.4294  0.3041
  258DG     O10 5921   2.747   3.061   5.873 -0.0488  0.1928  0.2643
  258DG     C11 5922   2.243   3.104   5.694 -0.8486 -0.3200  0.1583
  258DG     C12 5923   2.668   3.142   5.960 -0.7084  0.2406  0.8245
  258DG     H13 5924   2.142   3.078   5.707 -1.2311  1.1403  1.1015
  258DG     H14 5925   2.267   3.205   5.662  0.4320 -0.8941  1.5402
  258DG     H15 5926   2.679   3.246   5.930  0.0484 -1.2136 -2.6614
  258DG     H16 5927   2.710   3.133   6.068  1.9891  0.9763  1.0735
  258DG     C17 5928   2.314   3.105   5.835 -0.1736 -0.4878  0.0328
  258DG     C18 5929   2.516   3.111   5.965  0.0592 -0.4932 -0.4779
  258DG     O19 5930   2.454   3.136   5.835 -0.5839  0.2142  0.0184
  258DG     H20 5931   2.295   3.008   5.882 -1.6004 -0.4910 -0.4432
  258DG     H21 5932   2.263   3.190   5.881  1.0718  0.2085 -0.3249
  258DG     H22 5933   2.495   3.013   5.988 -0.7851  1.1258  0.3401
  258DG     H23 5934   2.479   3.181   6.034  1.8654  0.1791  1.5655
  259DG      C1 5935   4.594   4.735   3.189 -0.1538  0.0305  0.5389
  259DG      C2 5936   3.992   4.565   3.600  0.1644  0.4587 -0.4910
  259DG      H3 5937   4.700   4.757   3.199 -0.4627  2.7776 -1.1498
  259DG      H4 5938   4.565   4.754   3.081  0.2031  0.9652 -4.4964
  259DG      H5 5939   4.577   4.632   3.210  1.1197  0.2731 -1.3199
  259DG      H6 5940   4.028   4.461   3.610 -2.4273 -2.2580  4.5274
  259DG      H7 5941   3.941   4.574   3.692 -0.1386 -1.0831  2.5425
  259DG      H8 5942   3.928   4.569   3.517  0.9423 -1.6296 -1.3206
  259DG      O9 5943   4.522   4.824   3.280 -0.1670 -0.1861 -0.2551
  259DG     O10 5944   4.092   4.655   3.586 -0.4239 -0.2090  0.0015
  259DG     C11 5945   4.533   4.789   3.415  0.0185  0.3426  0.0717
  259DG     C12 5946   4.062   4.791   3.564  0.0643  0.4111 -0.0919
  259DG     H13 5947   4.632   4.810   3.454  0.3951  0.6782  2.7032
  259DG     H14 5948   4.513   4.685   3.420 -1.8610 -1.2345  0.8241
  259DG     H15 5949   3.990   4.817   3.644  1.7349  0.1711 -0.8829
  259DG     H16 5950   4.007   4.806   3.475  1.3508 -0.2035 -0.4148
  259DG     C17 5951   4.420   4.866   3.498  0.7245 -0.4840 -0.0789
  259DG     C18 5952   4.194   4.873   3.559 -0.9881 -0.1280 -0.0209
  259DG     O19 5953   4.290   4.814   3.479 -0.0041 -0.2978 -0.0527
  259DG     H20 5954   4.408   4.968   3.465 -0.3007 -0.0256 -3.1315
  259DG     H21 5955   4.455   4.860   3.602 -2.0597 -1.4249 -1.3484
  259DG     H22 5956   4.170   4.976   3.518 -1.1160 -1.4576 -1.2843
  259DG     H23 5957   4.233   4.887   3.659  4.6995 -2.5679 -0.2612
  260DG      C1 5958   1.614   0.693   4.053 -0.0660  0.3158  0.6581
  260DG      C2 5959   1.610   0.203   4.486  0.6699  0.7093  0.1233
  260DG      H3 5960   1.588   0.681   3.945  0.0883  1.0001  1.0977
  260DG      H4 5961   1.662   0.790   4.060 -0.2171 -0.7069 -1.5421
  260DG      H5 5962   1.510   0.698   4.100 -2.4336  0.3854 -1.3162
  260DG      H6 5963   1.642   0.112   4.539  0.0079  2.9292  1.1910
  260DG      H7 5964   1.645   0.285   4.547  2.2649 -1.7837 -3.0431
  260DG      H8 5965   1.504   0.210   4.493 -0.4926  1.6203 -0.9744
  260DG      O9 5966   1.694   0.593   4.121 -0.0027  0.5195  0.1392
  260DG     O10 5967   1.664   0.222   4.355 -0.2051  0.3721 -0.2436
  260DG     C11 5968   1.823   0.580   4.056 -0.0892  0.7720  0.0631
  260DG     C12 5969   1.806   0.181   4.344  0.0065  0.0018 -0.1125
  260DG     H13 5970   1.889   0.633   4.125 -2.2048 -1.3328  3.2222
  260DG     H14 5971   1.835   0.614   3.957 -2.2066  0.1691 -2.0225
  260DG     H15 5972   1.822   0.070   4.356  0.5557 -1.5190 -0.6711
  260DG     H16 5973   1.864   0.233   4.421 -1.2832  1.1856  0.3036
  260DG     C17 5974   1.864   0.431   4.065 -0.3623 -0.4092 -0.0483
  260DG     C18 5975   1.864   0.231   4.211  0.1935  0.0364 -0.5940
  260DG     O19 5976   1.818   0.365   4.182  0.3924 -0.1837 -0.7171
  260DG     H20 5977   1.971   0.412   4.074 -1.4354 -2.2647  2.2469
  260DG     H21 5978   1.817   0.384   3.974 -0.2084  1.2920  1.2953
  260DG     H22 5979   1.968   0.227   4.223 -3.1307 -2.4272 -2.1601
  260DG     H23 5980   1.841   0.170   4.124 -0.0171 -1.6248 -0.7983
  261DG      C1 5981   5.317   5.041   2.694  1.0574  0.2367  0.5383
  261DG      C2 5982   4.808   5.085   3.147 -0.6115  0.2718 -0.1373
  261DG      H3 5983   5.356   5.128   2.741  0.9603 -1.9232  0.1220
  261DG      H4 5984   5.278   5.069   2.596 -1.4760  1.4449  0.8723
  261DG      H5 5985   5.408   4.988   2.686  2.1710  3.1946  1.3580
  261DG      H6 5986   4.736   5.154   3.093  0.9918  2.5911  0.0596
  261DG      H7 5987   4.756   5.014   3.209 -1.8130 -0.4622  0.1165
  261DG      H8 5988   4.866   5.154   3.209  2.3413  0.4239 -0.1086
  261DG      O9 5989   5.222   4.967   2.771 -0.3146 -0.0344  0.3775
  261DG     O10 5990   4.897   5.033   3.040  0.0766 -0.2400 -0.4034
  261DG     C11 5991   5.174   4.862   2.696  0.1585 -0.4318  0.3945
  261DG     C12 5992   4.815   4.948   2.958  1.1452 -0.1600  0.3519
  261DG     H13 5993   5.252   4.802   2.651 -0.2297  0.7733 -0.7688
  261DG     H14 5994   5.116   4.902   2.623  1.9617 -1.5817  0.5899
  261DG     H15 5995   4.710   4.987   2.941 -0.1600 -0.5295 -1.6389
  261DG     H16 5996   4.797   4.857   3.023 -1.0509 -1.3578  1.1817
  261DG     C17 5997   5.086   4.773   2.789 -0.0587  0.6799 -0.2181
  261DG     C18 5998   4.893   4.892   2.837  0.1394  0.2219  0.4159
  261DG     O19 5999   5.016   4.843   2.885 -0.2036 -0.0467  0.2540
  261DG     H20 6000   5.151   4.702   2.848 -0.1037 -1.7335 -1.0785
  261DG     H21 6001   5.021   4.703   2.734  0.0629 -1.3362 -1.1046
  261DG     H22 6002   4.837   4.807   2.786 -2.3505  2.5265  0.9562
  261DG     H23 6003   4.905   4.975   2.766 -0.2089 -0.0341 -1.3236
  262DG      C1 6004   4.831   2.501   0.118 -0.1228 -1.2104 -0.7541
  262DG      C2 6005   5.475   2.424  -0.391 -0.2607  0.1349 -0.1604
  262DG      H3 6006   4.744   2.542   0.066  0.3016  0.5098 -2.5162
  262DG      H4 6007   4.815   2.491   0.223  0.3563 -2.1454 -0.3295
  262DG      H5 6008   4.843   2.406   0.067 -3.2158 -0.0278 -0.9522
  262DG      H6 6009   5.541   2.340  -0.390  2.6774  1.4947  0.0950
  262DG      H7 6010   5.423   2.414  -0.485  0.9629  0.0924  1.8104
  262DG      H8 6011   5.529   2.524  -0.397 -0.0168 -0.4964 -1.4331
  262DG      O9 6012   4.949   2.574   0.084 -0.2855 -0.2890  0.2944
  262DG     O10 6013   5.396   2.408  -0.274  0.0531  0.1055 -0.7347
  262DG     C11 6014   5.070   2.530   0.143 -0.5651  0.4420  0.4605
  262DG     C12 6015   5.262   2.465  -0.295 -0.6249  0.7120  0.2926
  262DG     H13 6016   5.059   2.491   0.245  0.0498  0.5656  0.5776
  262DG     H14 6017   5.146   2.603   0.149  1.0409  2.6246 -0.8525
  262DG     H15 6018   5.226   2.435  -0.393 -1.1836 -0.5712 -1.7224
  262DG     H16 6019   5.274   2.572  -0.289 -1.0023  1.1532 -2.3191
  262DG     C17 6020   5.133   2.413   0.054 -0.0675 -1.0345  0.2067
  262DG     C18 6021   5.161   2.417  -0.185 -0.2271  0.3507 -0.5303
  262DG     O19 6022   5.203   2.459  -0.057 -0.0394  0.1989  0.1210
  262DG     H20 6023   5.063   2.330   0.035 -0.6887 -3.1749 -0.3872
  262DG     H21 6024   5.224   2.381   0.115  1.8199 -0.0323  0.0537
  262DG     H22 6025   5.057   2.440  -0.195 -1.3096 -1.0096  1.3982
  262DG     H23 6026   5.156   2.311  -0.181  0.7856  1.2110  3.7936
  263DG      C1 6027   3.977   5.151   0.829  0.0565 -0.2745 -0.3633
  263DG      C2 6028   4.255   4.654   1.174  0.7211 -0.1428 -1.2437
  263DG      H3 6029   3.924   5.210   0.906  1.1651  1.5295  1.4653
  263DG      H4 6030   3.937   5.175   0.731  1.4995 -0.4910 -0.3808
  263DG      H5 6031   4.082   5.179   0.811  0.2995  0.0847  0.2125
  263DG      H6 6032   4.241   4.574   1.248 -1.4323  2.2215  2.8357
  263DG      H7 6033   4.275   4.617   1.078  0.3015 -0.7569 -0.4197
  263DG      H8 6034   4.334   4.718   1.207 -3.7340 -0.5008  0.2779
  263DG      O9 6035   3.970   5.012   0.856  0.1978 -0.3233  0.3855
  263DG     O10 6036   4.138   4.731   1.157 -0.0983 -0.1121 -0.1796
  263DG     C11 6037   3.836   4.963   0.879  0.6557 -0.5680 -0.4041
  263DG     C12 6038   4.023   4.654   1.179  0.3837 -0.2373 -0.8768
  263DG     H13 6039   3.811   4.898   0.796  0.4407 -0.4854 -0.9012
  263DG     H14 6040   3.758   5.039   0.864 -1.5973 -0.4952 -2.7625
  263DG     H15 6041   4.020   4.600   1.278  1.8958 -1.6603 -0.1452
  263DG     H16 6042   4.024   4.583   1.099  0.9798 -0.8541  0.1269
  263DG     C17 6043   3.824   4.906   1.020 -0.1433 -0.7760  0.4690
  263DG     C18 6044   3.904   4.747   1.170 -0.2885  0.2786  0.0514
  263DG     O19 6045   3.916   4.800   1.039 -0.0108 -0.1245  0.2666
  263DG     H20 6046   3.720   4.878   1.034 -0.2742  2.8766  0.6889
  263DG     H21 6047   3.840   4.983   1.096  0.1403  0.4169 -0.6499
  263DG     H22 6048   3.803   4.709   1.185 -1.4248  1.9826  4.0945
  263DG     H23 6049   3.908   4.823   1.248  1.4801  1.3306  0.2782
  264DG      C1 6050   4.708   4.011   0.370  0.3181 -0.3288 -1.1576
  264DG      C2 6051   4.367   4.544   0.229  0.3804 -0.2796 -0.0717
  264DG      H3 6052   4.784   3.933   0.339 -1.8468 -1.7899 -2.9014
  264DG      H4 6053   4.645   3.954   0.444  0.4182  0.1560  2.7550
  264DG      H5 6054   4.746   4.103   0.411  0.7364 -1.3214  1.9449
  264DG      H6 6055   4.272   4.580   0.185  0.0317  1.5603 -1.4984
  264DG      H7 6056   4.363   4.552   0.337 -0.2486  1.6122 -2.3073
  264DG      H8 6057   4.439   4.618   0.198  1.3247  0.4468  2.6429
  264DG      O9 6058   4.636   4.069   0.260  0.0526 -0.2014 -0.0439
  264DG     O10 6059   4.385   4.411   0.187 -0.5781 -0.3154 -0.1419
  264DG     C11 6060   4.688   4.044   0.129  0.2951 -0.5599  0.6584
  264DG     C12 6061   4.372   4.394   0.044 -0.4701 -0.5717 -0.5745
  264DG     H13 6062   4.712   3.942   0.104 -0.0587  0.1463 -0.3778
  264DG     H14 6063   4.777   4.104   0.120 -0.7338 -1.0667 -2.1917
  264DG     H15 6064   4.443   4.460  -0.013  0.9683  0.2106 -1.0247
  264DG     H16 6065   4.272   4.415   0.009  0.5285  0.1817 -0.7782
  264DG     C17 6066   4.584   4.088   0.026 -0.3701  0.8646 -0.4780
  264DG     C18 6067   4.413   4.251   0.004  0.0793 -0.0876  0.6971
  264DG     O19 6068   4.540   4.217   0.062 -0.4600  0.9231 -0.5901
  264DG     H20 6069   4.493   4.020   0.023  1.6065  1.4784 -0.2202
  264DG     H21 6070   4.624   4.081  -0.073 -0.3192 -2.6379  4.8798
  264DG     H22 6071   4.332   4.181   0.032  0.4747  3.0741 -0.2218
  264DG     H23 6072   4.414   4.251  -0.112  0.1341 -1.0857  0.0186
  265DG      C1 6073   3.382   3.621   1.406  0.2022 -0.2706 -0.6553
  265DG      C2 6074   3.235   4.157   1.822  0.0885 -0.4338 -0.0144
  265DG      H3 6075   3.454   3.545   1.382 -0.6903  2.8724 -0.9454
  265DG      H4 6076   3.311   3.616   1.326 -0.3271 -0.2982  0.6262
  265DG      H5 6077   3.331   3.587   1.497  1.5928 -2.6890  0.8126
  265DG      H6 6078   3.241   4.264   1.841 -0.6490  0.1979 -1.4751
  265DG      H7 6079   3.131   4.154   1.790  0.0750 -2.8941 -1.5078
  265DG      H8 6080   3.249   4.097   1.915  0.5897  0.5430  1.7418
  265DG      O9 6081   3.426   3.756   1.417  0.5124 -0.2159 -0.2185
  265DG     O10 6082   3.310   4.112   1.710 -0.2748 -0.6609 -0.0192
  265DG     C11 6083   3.565   3.769   1.451 -0.3902 -0.2567  0.2369
  265DG     C12 6084   3.448   4.151   1.729  0.8886 -0.1241  0.6879
  265DG     H13 6085   3.630   3.730   1.369  0.3080 -0.7732 -1.0745
  265DG     H14 6086   3.593   3.713   1.544 -0.1307 -0.3359  1.7533
  265DG     H15 6087   3.490   4.098   1.815  2.1867 -0.8460  0.4430
  265DG     H16 6088   3.472   4.263   1.745 -1.9478 -0.8398  0.6873
  265DG     C17 6089   3.594   3.929   1.473 -0.2089  0.5091 -0.2405
  265DG     C18 6090   3.534   4.106   1.614  0.1266  0.1591  0.1456
  265DG     O19 6091   3.496   3.974   1.567 -0.1475 -0.1298 -0.3526
  265DG     H20 6092   3.581   3.988   1.384  0.4377  4.3640  0.5328
  265DG     H21 6093   3.694   3.931   1.509 -0.3948  0.9650 -0.7167
  265DG     H22 6094   3.494   4.161   1.527  0.9358 -0.9945  0.4123
  265DG     H23 6095   3.637   4.112   1.642 -0.4836 -0.3661 -0.9101
  266DG      C1 6096   3.186   4.205   3.177 -0.6372 -0.1062 -0.9557
  266DG      C2 6097   3.236   4.109   4.069 -0.0206  0.3420  0.4838
  266DG      H3 6098   3.119   4.162   3.105 -0.3543  0.6229 -1.5623
  266DG      H4 6099   3.250   4.286   3.140 -0.5938 -0.9303 -0.9693
  266DG      H5 6100   3.119   4.257   3.255  1.0703 -0.5328  0.1117
  266DG      H6 6101   3.177   4.195   4.074  0.5470  0.3048  1.8438
  266DG      H7 6102   3.199   4.038   4.141  0.2767 -1.1310  1.4373
  266DG      H8 6103   3.341   4.128   4.097 -0.8392 -0.4365  2.0663
  266DG      O9 6104   3.274   4.105   3.237 -0.8765 -0.1997 -0.5007
  266DG     O10 6105   3.220   4.050   3.940  0.1076 -0.2785 -0.2064
  266DG     C11 6106   3.341   4.136   3.358  0.1534 -0.4583 -0.3782
  266DG     C12 6107   3.286   4.122   3.839  0.4730 -0.1325 -0.1739
  266DG     H13 6108   3.360   4.246   3.367 -0.1191 -0.9317 -0.5810
  266DG     H14 6109   3.431   4.074   3.357  0.2392 -1.6691  3.0744
  266DG     H15 6110   3.394   4.123   3.852  1.8171  0.2985  2.6561
  266DG     H16 6111   3.260   4.224   3.852 -0.4833 -1.2366 -0.8167
  266DG     C17 6112   3.255   4.080   3.475  0.6798  0.0727 -0.9632
  266DG     C18 6113   3.235   4.057   3.705 -0.1502 -0.7596 -0.8806
  266DG     O19 6114   3.319   4.104   3.603 -0.0424 -0.0764  0.7444
  266DG     H20 6115   3.226   3.975   3.462  0.1121  2.3198 -0.1362
  266DG     H21 6116   3.169   4.151   3.471  0.8911 -1.5168 -3.8200
  266DG     H22 6117   3.246   3.947   3.707  0.4130 -0.7090  0.0982
  266DG     H23 6118   3.125   4.082   3.687  0.0899  0.3979  0.3183
  267DG      C1 6119   1.704   2.475   1.224 -0.3013 -0.0426  0.4345
  267DG      C2 6120   2.147   2.293   0.679 -0.0488  0.2571  0.2079
  267DG      H3 6121   1.655   2.563   1.260  0.2815  1.1409  1.3261
  267DG      H4 6122   1.776   2.451   1.308  0.9192 -0.6567  0.4734
  267DG      H5 6123   1.626   2.397   1.231 -0.1250 -3.9654  2.6597
  267DG      H6 6124   2.110   2.196   0.650 -0.3170 -0.0881  0.6017
  267DG      H7 6125   2.213   2.328   0.599 -0.7693 -3.1328  2.1133
  267DG      H8 6126   2.213   2.270   0.765 -2.2284 -0.3673  1.0628
  267DG      O9 6127   1.768   2.502   1.098 -0.4288 -0.3582  0.1593
  267DG     O10 6128   2.058   2.394   0.736 -0.4113 -0.1939  0.3086
  267DG     C11 6129   1.685   2.550   0.998  0.1166  0.0107 -0.3910
  267DG     C12 6130   1.957   2.418   0.638 -0.5856 -0.4461  0.4387
  267DG     H13 6131   1.606   2.615   1.039 -4.8833 -0.4718 -0.2754
  267DG     H14 6132   1.633   2.466   0.953 -0.8454  0.2098  3.1826
  267DG     H15 6133   1.886   2.335   0.638 -0.3360 -1.8574  1.5925
  267DG     H16 6134   1.999   2.429   0.540 -1.0337  0.0126  0.4759
  267DG     C17 6135   1.759   2.624   0.887 -0.0914  0.7444  0.4903
  267DG     C18 6136   1.873   2.537   0.687  0.5416  0.4619 -0.2003
  267DG     O19 6137   1.838   2.520   0.828 -0.6278  0.2397 -0.2646
  267DG     H20 6138   1.821   2.707   0.917  1.5526  0.7795  0.9641
  267DG     H21 6139   1.687   2.658   0.814 -1.5134  0.6540 -2.8892
  267DG     H22 6140   1.927   2.628   0.686 -1.4992 -3.7889  0.5136
  267DG     H23 6141   1.776   2.548   0.641  0.2177  1.9581 -1.4877
  268DG      C1 6142   3.495   2.194   3.495  0.3450  0.2222 -1.1901
  268DG      C2 6143   3.143   2.492   3.959  0.2887 -0.3147  0.2457
  268DG      H3 6144   3.497   2.160   3.393 -0.8035 -0.1867  0.5811
  268DG      H4 6145   3.586   2.166   3.543  0.6608  0.3113 -0.9368
  268DG      H5 6146   3.484   2.302   3.498  0.7965  0.3399  1.5106
  268DG      H6 6147   3.061   2.563   3.976  0.5637  3.8730 -0.1569
  268DG      H7 6148   3.147   2.421   4.037  0.8755 -0.7687 -0.2949
  268DG      H8 6149   3.231   2.553   3.970 -1.2993  0.3956  2.4604
  268DG      O9 6150   3.381   2.143   3.556 -0.2772  0.1322  0.1639
  268DG     O10 6151   3.143   2.437   3.835  0.6912  0.2650 -0.0258
  268DG     C11 6152   3.260   2.139   3.478 -0.2679  0.2156  0.3364
  268DG     C12 6153   3.137   2.531   3.729 -0.0623  0.1603 -0.6530
  268DG     H13 6154   3.192   2.078   3.529 -0.9213  2.0531 -1.5270
  268DG     H14 6155   3.276   2.091   3.380  2.5848  0.3909 -3.4194
  268DG     H15 6156   3.229   2.600   3.729  0.1029  1.5610 -2.5036
  268DG     H16 6157   3.062   2.609   3.752  0.6945 -0.7050 -1.2919
  268DG     C17 6158   3.197   2.282   3.463 -0.2579  0.3207 -0.3524
  268DG     C18 6159   3.119   2.459   3.590  0.2108 -0.8661 -0.3207
  268DG     O19 6160   3.192   2.337   3.590  0.2844  0.2664 -0.0215
  268DG     H20 6161   3.098   2.277   3.410 -0.9837  1.0807 -0.9913
  268DG     H21 6162   3.264   2.348   3.406 -0.4294 -0.4508  3.3167
  268DG     H22 6163   3.012   2.442   3.576 -0.2169  0.8979  1.5864
  268DG     H23 6164   3.155   2.530   3.505  0.8537  2.3184 -0.2485
  269DG      C1 6165   4.647   3.063   0.386 -0.1865  0.0060 -0.1389
  269DG      C2 6166   5.308   3.095   0.222  0.3783  0.0620  0.1406
  269DG      H3 6167   4.654   3.173   0.380 -1.0693  0.0731 -0.9038
  269DG      H4 6168   4.599   3.046   0.480 -2.5666 -2.7248 -1.0093
  269DG      H5 6169   4.578   3.040   0.301  0.8150  1.5805  1.5155
  269DG      H6 6170   5.290   3.082   0.118  2.2508 -2.9207  1.3484
  269DG      H7 6171   5.310   3.204   0.243 -0.2317  0.0615 -1.6102
  269DG      H8 6172   5.406   3.062   0.229  1.1225 -0.5747 -1.4292
  269DG      O9 6173   4.776   3.003   0.374  0.2868  0.1280 -0.1764
  269DG     O10 6174   5.214   3.031   0.301 -0.0914  0.1257 -0.3043
  269DG     C11 6175   4.778   2.866   0.399 -0.2233 -0.9559 -0.3438
  269DG     C12 6176   5.209   2.891   0.281 -0.6109 -0.1917 -1.0005
  269DG     H13 6177   4.704   2.819   0.340 -0.1881  0.0785 -0.4689
  269DG     H14 6178   4.749   2.845   0.505 -2.9802  2.6783 -0.0079
  269DG     H15 6179   5.306   2.840   0.264  2.2737  1.1623  3.6737
  269DG     H16 6180   5.142   2.869   0.197  0.3768  0.0531 -1.0580
  269DG     C17 6181   4.913   2.799   0.376  0.2720  0.2455 -0.3598
  269DG     C18 6182   5.143   2.823   0.404  0.6831  0.7929 -0.3036
  269DG     O19 6183   5.014   2.879   0.434  0.2089  0.9006  0.2348
  269DG     H20 6184   4.927   2.788   0.264  0.7823  1.6073 -1.4732
  269DG     H21 6185   4.906   2.701   0.422 -0.4769 -1.4893 -0.1601
  269DG     H22 6186   5.140   2.715   0.397 -1.2983 -1.1989  1.6769
  269DG     H23 6187   5.198   2.844   0.496 -1.1189  1.6740  0.1299
  270DG      C1 6188   4.485   0.770   0.095  0.4610  0.1812  0.3045
  270DG      C2 6189   4.667   0.474  -0.451 -0.1230 -0.5056  0.6538
  270DG      H3 6190   4.534   0.859   0.062 -0.1001 -1.4239 -1.4163
  270DG      H4 6191   4.466   0.785   0.201  1.5647  0.0796 -0.3800
  270DG      H5 6192   4.390   0.749   0.043  0.7700 -2.0866  0.5238
  270DG      H6 6193   4.565   0.503  -0.449  0.3894 -0.3208 -1.5345
  270DG      H7 6194   4.718   0.560  -0.489  0.0546  1.4976 -3.2115
  270DG      H8 6195   4.676   0.390  -0.519  0.3337  3.4267 -0.2779
  270DG      O9 6196   4.581   0.662   0.086 -0.5200 -0.4106  0.3208
  270DG     O10 6197   4.710   0.447  -0.323  0.0749  0.2305  0.5367
  270DG     C11 6198   4.549   0.543   0.150 -0.8915 -0.0031 -0.1433
  270DG     C12 6199   4.641   0.336  -0.271  0.2378 -0.0028  0.0695
  270DG     H13 6200   4.439   0.521   0.139  1.0953  3.6523  1.0468
  270DG     H14 6201   4.567   0.541   0.254 -0.8813  0.9610  0.2929
  270DG     H15 6202   4.677   0.244  -0.310  0.1434 -1.3187  1.5127
  270DG     H16 6203   4.535   0.339  -0.293  0.7133 -2.5587  1.3255
  270DG     C17 6204   4.632   0.427   0.086 -0.2638  0.3958  1.1074
  270DG     C18 6205   4.667   0.318  -0.124 -0.0323  0.2591 -0.1729
  270DG     O19 6206   4.632   0.442  -0.055 -0.1233 -0.2406  0.1470
  270DG     H20 6207   4.589   0.337   0.116  2.5828  0.5170  1.3774
  270DG     H21 6208   4.737   0.427   0.123 -0.4139  0.8512  2.0048
  270DG     H22 6209   4.625   0.229  -0.076 -0.2680 -0.5671  2.2313
  270DG     H23 6210   4.772   0.285  -0.117  0.1281 -2.6296  1.3488
  271DG      C1 6211   5.205   4.100   2.128 -0.5770  0.6405 -0.5886
  271DG      C2 6212   5.469   3.392   2.621  0.3196  0.0252  0.2788
  271DG      H3 6213   5.277   4.118   2.049 -0.6277  1.8149 -0.1026
  271DG      H4 6214   5.163   4.192   2.168  1.3910 -0.2163  1.9662
  271DG      H5 6215   5.121   4.049   2.085 -0.0893  1.5139  0.9814
  271DG      H6 6216   5.530   3.352   2.699 -1.1486 -1.6805  0.0719
  271DG      H7 6217   5.360   3.357   2.628 -2.9683  2.6323  1.2568
  271DG      H8 6218   5.510   3.349   2.535 -0.4149 -0.5039 -0.8049
  271DG      O9 6219   5.256   4.019   2.237  0.2132 -0.2410 -1.0062
  271DG     O10 6220   5.475   3.531   2.611  0.3954 -0.2091  0.1425
  271DG     C11 6221   5.155   3.974   2.334 -0.1873 -0.3948  0.4435
  271DG     C12 6222   5.417   3.591   2.496  0.2964  0.1922 -0.4271
  271DG     H13 6223   5.083   3.904   2.286 -1.3362 -2.7341 -1.3348
  271DG     H14 6224   5.102   4.059   2.377 -0.6787 -0.5463  1.1559
  271DG     H15 6225   5.329   3.535   2.470 -1.3230 -0.1955 -1.3468
  271DG     H16 6226   5.480   3.582   2.404 -0.9818 -0.1474  0.3678
  271DG     C17 6227   5.224   3.910   2.454 -0.1276 -0.5284 -0.3998
  271DG     C18 6228   5.381   3.739   2.517 -0.0771  0.0682  0.0694
  271DG     O19 6229   5.297   3.791   2.414  0.4314 -0.4401 -0.4559
  271DG     H20 6230   5.152   3.891   2.532  1.2270 -0.4046  1.3696
  271DG     H21 6231   5.283   3.979   2.509 -1.2166  0.0206  0.2740
  271DG     H22 6232   5.324   3.751   2.608  0.0469  1.1637 -1.9272
  271DG     H23 6233   5.475   3.783   2.498  0.1889 -2.4591  4.1283
  272DG      C1 6234   3.545   0.772   4.063  0.0419  0.5008  0.6230
  272DG      C2 6235   3.243   1.264   4.477 -0.5058  0.1959  0.0701
  272DG      H3 6236   3.615   0.853   4.039  0.9043 -2.9542 -1.1385
  272DG      H4 6237   3.532   0.738   3.966  1.2077 -0.2683  3.0634
  272DG      H5 6238   3.590   0.692   4.118  3.3359 -0.1331  1.2344
  272DG      H6 6239   3.237   1.207   4.569 -0.0450 -0.7598 -1.9810
  272DG      H7 6240   3.345   1.283   4.446 -1.2013  1.3697  0.1783
  272DG      H8 6241   3.192   1.348   4.473 -1.9235 -3.8692  0.3319
  272DG      O9 6242   3.429   0.814   4.118 -0.0297  0.1854  0.4232
  272DG     O10 6243   3.199   1.170   4.379 -0.1712  0.1249  0.3182
  272DG     C11 6244   3.325   0.831   4.024 -0.2239 -0.6893 -0.5923
  272DG     C12 6245   3.177   1.234   4.254  0.3627  0.2112  0.2464
  272DG     H13 6246   3.304   0.733   3.980  0.7996 -0.1158 -0.1803
  272DG     H14 6247   3.359   0.899   3.941 -1.2281  1.3321  1.2954
  272DG     H15 6248   3.263   1.278   4.201  0.3751  1.3321 -0.0653
  272DG     H16 6249   3.104   1.309   4.256 -1.8517  0.2738 -1.5415
  272DG     C17 6250   3.201   0.901   4.078 -0.1355 -0.0906 -0.1572
  272DG     C18 6251   3.136   1.121   4.162 -0.5371 -0.1261  0.5144
  272DG     O19 6252   3.237   1.021   4.147 -0.1733 -0.3227 -0.1053
  272DG     H20 6253   3.151   0.835   4.149  2.2781 -2.2179  0.1042
  272DG     H21 6254   3.124   0.925   4.008  0.8703 -1.7722 -1.3012
  272DG     H22 6255   3.041   1.077   4.195  0.3423 -0.8686 -2.9975
  272DG     H23 6256   3.133   1.171   4.062 -0.2351 -0.6322 -1.2136
  273DG      C1 6257   3.448   0.168   5.303  1.0957 -0.7612  0.3130
  273DG      C2 6258   3.768   0.185   4.586  0.0653 -0.4815 -0.0314
  273DG      H3 6259   3.344   0.142   5.283  0.1023 -1.3615  0.7626
  273DG      H4 6260   3.449   0.214   5.403  0.8633  1.2535  0.8725
  273DG      H5 6261   3.507   0.075   5.304  1.1841 -1.1079  0.3316
  273DG      H6 6262   3.861   0.219   4.536  1.0750 -1.2279 -1.0594
  273DG      H7 6263   3.771   0.079   4.572  0.1095  2.3184 -0.6025
  273DG      H8 6264   3.672   0.218   4.547 -1.0855  0.5641  1.3674
  273DG      O9 6265   3.496   0.250   5.197  0.1721  0.5136  0.4666
  273DG     O10 6266   3.775   0.203   4.726 -0.1620  0.3587 -0.2842
  273DG     C11 6267   3.501   0.172   5.080 -0.1948 -0.4007 -0.2714
  273DG     C12 6268   3.774   0.346   4.761 -0.8991 -0.4751 -0.5523
  273DG     H13 6269   3.421   0.218   5.021  0.6500 -0.8190 -0.8011
  273DG     H14 6270   3.473   0.068   5.094  0.7660 -2.0451 -1.7171
  273DG     H15 6271   3.699   0.410   4.716  1.3804  0.3937  0.1149
  273DG     H16 6272   3.874   0.378   4.731 -1.8477 -1.7373  1.8350
  273DG     C17 6273   3.637   0.192   5.011  0.1504 -0.4995  0.1978
  273DG     C18 6274   3.777   0.362   4.915  0.8398 -0.3862 -0.3648
  273DG     O19 6275   3.653   0.333   4.984 -0.5108  0.3069  0.2496
  273DG     H20 6276   3.640   0.137   4.916  0.9503 -0.4470  1.5668
  273DG     H21 6277   3.720   0.156   5.076  0.6442 -0.8728 -0.3216
  273DG     H22 6278   3.866   0.313   4.969  2.4627 -1.4700 -0.1624
  273DG     H23 6279   3.790   0.467   4.935 -0.9652  2.4148  0.5963
  274DG      C1 6280   1.552   4.025   3.669 -0.4041 -0.6836  0.7471
  274DG      C2 6281   1.479   3.335   3.749  0.5279  0.2912  0.0583
  274DG      H3 6282   1.530   4.006   3.777  0.4707 -0.5606  2.8411
  274DG      H4 6283   1.497   4.115   3.634 -0.8050 -1.4075  0.1563
  274DG      H5 6284   1.662   4.041   3.665  3.3977 -0.5913  1.6156
  274DG      H6 6285   1.398   3.331   3.823  2.3496  1.3874  1.8011
  274DG      H7 6286   1.511   3.237   3.727  1.4427  0.8200 -0.8052
  274DG      H8 6287   1.560   3.388   3.792  0.4459 -2.4300  1.0582
  274DG      O9 6288   1.524   3.903   3.603 -0.2853 -0.0968 -0.2235
  274DG     O10 6289   1.436   3.386   3.626 -0.1073  0.6057  0.6157
  274DG     C11 6290   1.554   3.893   3.465 -0.0560  0.0236 -0.3948
  274DG     C12 6291   1.539   3.410   3.538 -0.9719  0.1749 -0.4241
  274DG     H13 6292   1.662   3.901   3.446  1.0181  2.5021  0.8085
  274DG     H14 6293   1.501   3.966   3.398  1.7203 -0.0948  1.2700
  274DG     H15 6294   1.549   3.314   3.490 -2.4207  0.1721 -0.2671
  274DG     H16 6295   1.631   3.445   3.590 -0.4206 -0.5740 -1.0253
  274DG     C17 6296   1.496   3.762   3.424 -0.1298  0.3494  0.5480
  274DG     C18 6297   1.502   3.520   3.445  0.6586  0.1101  0.1244
  274DG     O19 6298   1.536   3.648   3.501  0.5046 -0.0368  0.6430
  274DG     H20 6299   1.512   3.753   3.322  1.9001  2.7642  1.0558
  274DG     H21 6300   1.392   3.767   3.436  0.3748 -0.0738  1.8164
  274DG     H22 6301   1.551   3.500   3.344  2.1207  0.8099  0.5651
  274DG     H23 6302   1.392   3.513   3.438 -3.0514 -1.5400 -1.1759
  275DG      C1 6303   0.774   3.725   1.750  0.4539  0.0840 -0.4270
  275DG      C2 6304   0.048   3.855   2.165  0.3437 -0.5761  0.5261
  275DG      H3 6305   0.857   3.758   1.677 -0.2959 -2.6353 -0.7342
  275DG      H4 6306   0.698   3.670   1.699 -0.3627  2.3637  1.8929
  275DG      H5 6307   0.811   3.658   1.828 -1.7977 -0.3933  1.2793
  275DG      H6 6308  -0.043   3.835   2.100 -2.3066  0.7809 -0.0806
  275DG      H7 6309   0.066   3.769   2.227 -1.1137 -0.0190 -1.5278
  275DG      H8 6310   0.027   3.938   2.232 -0.2094  1.2404  2.0361
  275DG      O9 6311   0.732   3.847   1.809  0.1788 -0.3183 -0.7433
  275DG     O10 6312   0.166   3.884   2.094 -0.8141  0.1814 -0.5988
  275DG     C11 6313   0.604   3.833   1.867 -0.4980 -0.0619 -0.0649
  275DG     C12 6314   0.276   3.920   2.182  0.5171 -0.5906  0.1703
  275DG     H13 6315   0.614   3.745   1.937  1.7791  0.2607 -0.1593
  275DG     H14 6316   0.532   3.805   1.793  0.3283 -1.3614  1.7653
  275DG     H15 6317   0.306   3.852   2.252 -0.1701  0.4423  1.0178
  275DG     H16 6318   0.235   3.999   2.251 -1.1849  0.1553 -1.0834
  275DG     C17 6319   0.562   3.938   1.967 -0.6163  0.1784 -0.2319
  275DG     C18 6320   0.388   3.991   2.111  0.2612  0.1414 -0.1917
  275DG     O19 6321   0.437   3.898   2.015 -0.6730  0.8117  0.5812
  275DG     H20 6322   0.559   4.034   1.922  1.0676  0.3652  2.6939
  275DG     H21 6323   0.630   3.929   2.049 -0.3902 -1.3833  2.3336
  275DG     H22 6324   0.347   4.080   2.057  0.3011 -0.8065  0.5419
  275DG     H23 6325   0.449   4.042   2.188  0.9045 -0.7457  2.2009
  276DG      C1 6326   2.727   3.833   0.907  0.0477 -0.4789  1.2150
  276DG      C2 6327   2.247   4.225   0.619  0.1997 -0.4021  0.0401
  276DG      H3 6328   2.641   3.786   0.955  1.5437  0.0053 -0.2245
  276DG      H4 6329   2.817   3.787   0.946  0.8342 -1.7571  2.0534
  276DG      H5 6330   2.703   3.802   0.803 -5.2647  1.5061  1.9038
  276DG      H6 6331   2.156   4.277   0.643 -1.7307 -0.6446  1.3246
  276DG      H7 6332   2.326   4.285   0.569 -2.4286 -1.5598 -1.2745
  276DG      H8 6333   2.235   4.151   0.530  0.4995 -0.9245  0.4985
  276DG      O9 6334   2.729   3.976   0.903  0.2792  0.3386  0.5888
  276DG     O10 6335   2.286   4.153   0.739 -0.1553 -0.7252  0.0568
  276DG     C11 6336   2.710   4.034   1.031 -0.0596 -0.2870  0.0714
  276DG     C12 6337   2.322   4.258   0.834  0.2662 -0.2802  0.5834
  276DG     H13 6338   2.779   4.121   1.050  0.6754  1.5647  0.6321
  276DG     H14 6339   2.742   3.963   1.099 -1.0902 -1.5583  0.6089
  276DG     H15 6340   2.236   4.314   0.862 -1.4452 -1.5012  0.0801
  276DG     H16 6341   2.386   4.335   0.797 -0.0814  1.4536  0.4081
  276DG     C17 6342   2.561   4.051   1.040 -0.5769 -0.1984  0.3406
  276DG     C18 6343   2.382   4.190   0.957  0.3180 -0.0546  0.3200
  276DG     O19 6344   2.511   4.129   0.931  0.1909 -0.4776 -0.0069
  276DG     H20 6345   2.530   4.094   1.131  0.6112  1.2894 -2.2663
  276DG     H21 6346   2.506   3.951   1.039 -0.8114  0.5507 -0.9371
  276DG     H22 6347   2.392   4.269   1.035 -2.5522  0.9066 -0.5002
  276DG     H23 6348   2.314   4.120   0.996  0.5300 -0.8821 -0.9126
  277DG      C1 6349   1.009   4.141   0.140  0.2266 -0.3106 -0.2351
  277DG      C2 6350   1.515   4.223  -0.254  0.2235 -0.3740 -0.1735
  277DG      H3 6351   1.037   4.036   0.121  0.7521  0.0055 -1.1634
  277DG      H4 6352   0.909   4.153   0.185  2.6476 -0.5616 -1.8797
  277DG      H5 6353   1.081   4.180   0.214 -0.1851  0.5954  1.0517
  277DG      H6 6354   1.489   4.125  -0.288 -2.8626 -0.8223 -0.0459
  277DG      H7 6355   1.559   4.285  -0.338  2.0161  3.3340 -0.0372
  277DG      H8 6356   1.592   4.228  -0.173 -1.4582 -1.5530 -0.4521
  277DG      O9 6357   1.035   4.217   0.027 -0.2617 -0.5944 -0.6688
  277DG     O10 6358   1.393   4.273  -0.199  0.0645  0.5536  0.5974
  277DG     C11 6359   1.031   4.359   0.065  0.3002  0.0454 -0.1485
  277DG     C12 6360   1.389   4.418  -0.195 -0.1594  0.2393 -0.7659
  277DG     H13 6361   1.091   4.381   0.154  0.3132  1.2621 -1.4221
  277DG     H14 6362   0.928   4.389   0.095  2.3324 -0.0197 -2.4236
  277DG     H15 6363   1.432   4.467  -0.285  1.1647  2.9245 -0.6759
  277DG     H16 6364   1.439   4.446  -0.106 -2.3534 -2.2649 -0.8339
  277DG     C17 6365   1.066   4.441  -0.056  0.0226 -1.0292 -0.2478
  277DG     C18 6366   1.248   4.466  -0.197  0.1086 -0.4040 -0.2248
  277DG     O19 6367   1.199   4.404  -0.083  0.2687  0.1447 -0.5801
  277DG     H20 6368   1.050   4.549  -0.038 -0.3662  2.4845 -1.2776
  277DG     H21 6369   1.001   4.410  -0.138  2.7543 -2.0413 -0.6940
  277DG     H22 6370   1.254   4.578  -0.183  0.6650  2.4224 -1.3099
  277DG     H23 6371   1.185   4.433  -0.287  1.3291 -0.2330 -2.8911
  278DG      C1 6372   4.103   5.261   2.604 -0.4849  0.3660  0.0945
  278DG      C2 6373   4.366   5.078   3.159  0.0675  0.0278  0.0773
  278DG      H3 6374   4.204   5.278   2.561 -1.0078 -0.7286 -2.4912
  278DG      H4 6375   4.038   5.314   2.546  2.6396 -1.0647 -0.4827
  278DG      H5 6376   4.080   5.153   2.604  1.6451  0.1046  0.9451
  278DG      H6 6377   4.442   5.031   3.093 -0.6418  1.6988  0.1291
  278DG      H7 6378   4.412   5.091   3.253 -0.3804 -0.4963 -0.1700
  278DG      H8 6379   4.290   5.005   3.168  0.8285  0.6324 -0.4973
  278DG      O9 6380   4.100   5.311   2.736 -0.0510  0.1792  0.2288
  278DG     O10 6381   4.310   5.200   3.110  0.1019  0.1926 -0.0589
  278DG     C11 6382   4.127   5.451   2.747  0.2773 -0.3833 -0.4384
  278DG     C12 6383   4.373   5.323   3.141 -0.1559 -0.4710 -0.3237
  278DG     H13 6384   4.046   5.512   2.725  0.4311 -0.0866  4.1906
  278DG     H14 6385   4.211   5.478   2.686  1.5889  1.8334 -0.1489
  278DG     H15 6386   4.476   5.328   3.107 -2.8985 -1.3201  1.6110
  278DG     H16 6387   4.372   5.337   3.248  0.3248 -0.4122  1.9797
  278DG     C17 6388   4.159   5.489   2.891  0.3675 -0.0317  0.4192
  278DG     C18 6389   4.289   5.432   3.077  0.3904 -0.4676 -1.3280
  278DG     O19 6390   4.251   5.395   2.948 -0.0138  0.1656 -0.0057
  278DG     H20 6391   4.066   5.490   2.950  1.8206 -2.6943  2.0581
  278DG     H21 6392   4.207   5.586   2.903  0.1658 -0.8543 -1.7284
  278DG     H22 6393   4.217   5.459   3.155  2.5463  2.4174 -1.5324
  278DG     H23 6394   4.350   5.526   3.073  1.1663 -2.8495  0.6783
  279DG      C1 6395   1.892   3.356   1.321  0.3628  0.1165  0.0680
  279DG      C2 6396   1.917   4.013   0.925 -0.4319  0.1457  0.3488
  279DG      H3 6397   1.943   3.281   1.264  0.1142  0.8243  3.0826
  279DG      H4 6398   1.810   3.312   1.377  1.9832 -1.5536  0.3963
  279DG      H5 6399   1.964   3.404   1.386 -0.2781 -0.5674  0.6706
  279DG      H6 6400   1.880   4.040   0.825 -1.3281 -1.1859 -0.3531
  279DG      H7 6401   1.915   4.111   0.976 -1.0048  2.9389  2.7769
  279DG      H8 6402   2.020   3.991   0.913 -0.7817  0.7652  0.6614
  279DG      O9 6403   1.833   3.454   1.238  0.1551 -0.0222  0.2640
  279DG     O10 6404   1.829   3.914   0.980  0.1318 -0.4357 -0.0744
  279DG     C11 6405   1.746   3.406   1.139 -0.2455 -0.0943  0.0291
  279DG     C12 6406   1.867   3.860   1.100  0.8060 -0.2299  0.2169
  279DG     H13 6407   1.682   3.339   1.193 -0.6909  0.9931  1.7047
  279DG     H14 6408   1.797   3.346   1.065 -1.0463 -0.9127 -0.5832
  279DG     H15 6409   1.851   3.935   1.178  0.0941  0.1538 -3.1674
  279DG     H16 6410   1.966   3.824   1.099 -0.9420  3.1644  0.3169
  279DG     C17 6411   1.677   3.525   1.063  0.8242  0.2546 -0.2197
  279DG     C18 6412   1.768   3.744   1.134  0.0480 -0.6421  0.6600
  279DG     O19 6413   1.778   3.631   1.050 -0.1280  0.6053  0.6625
  279DG     H20 6414   1.583   3.552   1.117  1.9568  0.6806 -1.0001
  279DG     H21 6415   1.634   3.510   0.965  2.0402 -1.2914  2.2573
  279DG     H22 6416   1.787   3.711   1.232 -2.4445  3.1607 -0.2840
  279DG     H23 6417   1.668   3.793   1.129 -0.8305  0.5078  2.1558
  280DG      C1 6418   0.170   3.653   5.322  0.1538  0.3480  0.9099
  280DG      C2 6419   0.119   3.279   5.962  0.5902  0.1750 -0.2622
  280DG      H3 6420   0.261   3.601   5.312 -0.4144  2.1694 -1.1319
  280DG      H4 6421   0.191   3.752   5.365  0.5032  0.5528 -0.9300
  280DG      H5 6422   0.118   3.666   5.222  1.7731 -2.0847 -2.6620
  280DG      H6 6423   0.123   3.330   6.053  1.9527 -0.3594 -1.1496
  280DG      H7 6424   0.093   3.180   5.994 -1.1272 -1.7168  2.6076
  280DG      H8 6425   0.223   3.277   5.931 -0.5503 -0.0086  1.1900
  280DG      O9 6426   0.084   3.593   5.422  0.4343  0.2351 -0.2532
  280DG     O10 6427   0.023   3.322   5.871  0.6274  0.0505 -0.0664
  280DG     C11 6428   0.038   3.466   5.384  0.5554 -0.7487  0.5573
  280DG     C12 6429   0.028   3.462   5.840 -0.0262 -0.2116  0.1117
  280DG     H13 6430   0.129   3.411   5.365 -0.5252  0.8131  2.6956
  280DG     H14 6431  -0.006   3.475   5.283  0.8950  1.5661 -2.1361
  280DG     H15 6432   0.134   3.503   5.838  2.9047  0.4968 -1.5093
  280DG     H16 6433  -0.023   3.526   5.915  0.5866  2.3194  1.3817
  280DG     C17 6434  -0.043   3.392   5.490 -0.4679 -0.5535  0.5396
  280DG     C18 6435  -0.032   3.492   5.703 -0.6507 -0.3966 -0.5331
  280DG     O19 6436   0.019   3.389   5.615 -0.1412  0.0609 -0.4759
  280DG     H20 6437  -0.066   3.290   5.459 -1.0391  0.2028 -0.5718
  280DG     H21 6438  -0.136   3.449   5.502  2.2377 -1.5107 -3.2042
  280DG     H22 6439  -0.141   3.502   5.718 -0.7453 -4.6900  0.1078
  280DG     H23 6440  -0.002   3.591   5.663 -0.6662  0.4163 -0.9992
  281DG      C1 6441   2.239   1.253   4.714 -0.2972  0.1688  0.5058
  281DG      C2 6442   2.306   1.221   4.029  0.3634  0.0072  0.1040
  281DG      H3 6443   2.347   1.249   4.742  1.7663  0.5310  3.7713
  281DG      H4 6444   2.186   1.213   4.803  3.1716 -0.9252 -2.1034
  281DG      H5 6445   2.202   1.354   4.686 -0.0330  2.1755  0.6004
  281DG      H6 6446   2.272   1.154   3.954  3.7302 -2.6172  3.6850
  281DG      H7 6447   2.237   1.302   4.047 -2.1629 -0.9443 -2.4792
  281DG      H8 6448   2.398   1.257   3.991 -2.3122  0.3925 -0.8681
  281DG      O9 6449   2.213   1.170   4.601 -0.1749 -0.1787 -0.3013
  281DG     O10 6450   2.306   1.142   4.148  0.3002 -0.1499 -0.2925
  281DG     C11 6451   2.268   1.041   4.618  0.3211 -0.8028 -1.2430
  281DG     C12 6452   2.353   1.008   4.145 -0.8335  0.0437  0.7140
  281DG     H13 6453   2.231   0.991   4.707 -0.1687  0.7007  0.3149
  281DG     H14 6454   2.374   1.043   4.641 -0.0643  0.5961  0.8348
  281DG     H15 6455   2.463   1.005   4.158 -0.0435 -1.8143  1.1124
  281DG     H16 6456   2.343   0.958   4.054  2.3798  0.1847  1.1259
  281DG     C17 6457   2.239   0.954   4.498  0.0322  0.1349 -0.2650
  281DG     C18 6458   2.274   0.938   4.262 -0.1651  0.4282  0.3120
  281DG     O19 6459   2.301   1.014   4.380 -0.0031  0.4101 -0.3573
  281DG     H20 6460   2.131   0.944   4.473 -1.9834 -0.2365 -0.3496
  281DG     H21 6461   2.283   0.857   4.496  0.1204  0.3506  0.6511
  281DG     H22 6462   2.171   0.928   4.236 -0.4713  0.1917  0.3805
  281DG     H23 6463   2.310   0.836   4.271  1.2170  1.2219 -0.3578
  282DG      C1 6464   2.752   2.769   4.083  0.5670 -0.5370 -0.3909
  282DG      C2 6465   2.363   2.221   4.131  0.8691 -0.3557 -0.7017
  282DG      H3 6466   2.790   2.703   4.006  0.8725  2.3816 -0.1016
  282DG      H4 6467   2.803   2.746   4.180 -0.8965 -0.3046  1.3255
  282DG      H5 6468   2.767   2.875   4.065 -0.1264 -0.0669 -0.2274
  282DG      H6 6469   2.443   2.172   4.062  3.0061  0.0217  0.0472
  282DG      H7 6470   2.412   2.214   4.228 -2.4672  0.4859 -0.7757
  282DG      H8 6471   2.275   2.161   4.127 -0.4213  0.3996 -1.2844
  282DG      O9 6472   2.618   2.748   4.095  0.4519  0.9601 -0.0446
  282DG     O10 6473   2.336   2.359   4.098 -0.8198  0.6936 -0.3668
  282DG     C11 6474   2.549   2.817   4.199 -0.3017  0.1541 -0.3002
  282DG     C12 6475   2.276   2.424   4.216 -0.4444 -0.6577 -0.7324
  282DG     H13 6476   2.558   2.924   4.195  3.4706  0.7901 -0.4539
  282DG     H14 6477   2.597   2.790   4.292  4.5560 -1.8416  0.0267
  282DG     H15 6478   2.335   2.401   4.306  2.0050  1.0047  1.8906
  282DG     H16 6479   2.175   2.385   4.234  0.5388  1.2512 -3.7246
  282DG     C17 6480   2.407   2.768   4.218  0.2866 -0.2676  0.3504
  282DG     C18 6481   2.278   2.576   4.225  0.3970  0.0089 -0.3072
  282DG     O19 6482   2.413   2.628   4.201 -0.0733  0.1768  0.0293
  282DG     H20 6483   2.341   2.811   4.139 -2.0733 -1.0998  0.8394
  282DG     H21 6484   2.369   2.798   4.314  1.2399 -1.4303  0.5130
  282DG     H22 6485   2.224   2.610   4.142 -0.7088  1.1307  4.3666
  282DG     H23 6486   2.237   2.621   4.313 -1.9414 -2.2145 -1.6121
  283DG      C1 6487   0.396   5.288   1.000 -0.5517 -0.0345  0.1120
  283DG      C2 6488   0.217   5.889   0.391 -0.3889  0.0052  0.0271
  283DG      H3 6489   0.349   5.259   1.097 -2.4102 -0.4258  2.1041
  283DG      H4 6490   0.464   5.369   1.016  1.1213  0.7552 -1.7174
  283DG      H5 6491   0.458   5.204   0.964  0.8216  0.7821  0.9412
  283DG      H6 6492   0.244   5.830   0.307 -0.3392  0.5496  0.9183
  283DG      H7 6493   0.158   5.978   0.345  1.3873  3.6412 -1.3534
  283DG      H8 6494   0.308   5.925   0.439  1.1326 -0.4463  1.4812
  283DG      O9 6495   0.293   5.333   0.903  0.2898  0.5728 -0.0704
  283DG     O10 6496   0.134   5.822   0.485  0.2564 -0.1896  0.0306
  283DG     C11 6497   0.238   5.461   0.944 -0.3405  0.3799 -0.1242
  283DG     C12 6498   0.205   5.737   0.582  0.1113 -0.2791  0.5049
  283DG     H13 6499   0.323   5.523   0.957 -0.7357 -0.8720  1.3628
  283DG     H14 6500   0.193   5.458   1.044 -1.7616  2.7176 -1.7687
  283DG     H15 6501   0.228   5.786   0.677  5.4875 -2.1003  0.0960
  283DG     H16 6502   0.305   5.718   0.539  0.6622 -1.4316 -1.7588
  283DG     C17 6503   0.146   5.517   0.830 -0.2319  0.0824  0.1849
  283DG     C18 6504   0.152   5.594   0.605  0.4499 -0.1833 -0.2479
  283DG     O19 6505   0.230   5.543   0.716 -0.1025 -0.1685 -0.2937
  283DG     H20 6506   0.091   5.606   0.874 -1.3500  1.4528  0.6632
  283DG     H21 6507   0.066   5.445   0.801 -1.0316  0.2900  1.0646
  283DG     H22 6508   0.040   5.605   0.623  1.7937  1.5874 -0.5918
  283DG     H23 6509   0.170   5.532   0.519 -1.5151 -0.5687  1.1797
  284DG      C1 6510   3.270   4.626   0.465 -0.0111 -0.2341  0.4100
  284DG      C2 6511   3.114   3.945  -0.067  0.2039 -0.0012  0.4019
  284DG      H3 6512   3.379   4.632   0.462  1.3637 -0.3405 -0.0116
  284DG      H4 6513   3.229   4.624   0.572 -1.6325 -2.3124  1.3053
  284DG      H5 6514   3.223   4.714   0.421 -1.0129  0.0538  0.6626
  284DG      H6 6515   3.219   3.989  -0.071 -0.3412  3.2456 -0.5052
  284DG      H7 6516   3.108   3.836  -0.042  1.3754 -1.7707  0.4233
  284DG      H8 6517   3.065   3.956  -0.166  0.1643  1.6924 -1.2425
  284DG      O9 6518   3.235   4.503   0.397 -0.1893 -0.1677  0.1681
  284DG     O10 6519   3.039   4.016   0.040  0.5937 -0.1277 -0.3594
  284DG     C11 6520   3.092   4.474   0.412 -0.6621  0.2837  1.2589
  284DG     C12 6521   3.076   4.148   0.046 -0.1059 -0.3497 -0.2232
  284DG     H13 6522   3.038   4.555   0.359  1.4125 -0.2581  3.1087
  284DG     H14 6523   3.075   4.479   0.522  0.9248  5.7684 -1.7413
  284DG     H15 6524   3.040   4.197  -0.042  0.4716 -1.0774  2.1051
  284DG     H16 6525   3.183   4.167   0.062  0.6049 -1.3790 -0.6918
  284DG     C17 6526   3.038   4.336   0.365  0.0194  0.1378  0.5620
  284DG     C18 6527   3.011   4.197   0.175 -0.1927  0.2939 -0.2418
  284DG     O19 6528   3.062   4.313   0.228 -0.5926  0.1605  0.0752
  284DG     H20 6529   2.937   4.332   0.390  2.4236 -0.4663 -0.2714
  284DG     H21 6530   3.093   4.260   0.415 -0.0100  0.5178 -1.6307
  284DG     H22 6531   2.899   4.207   0.168 -1.6600 -1.4001  0.6077
  284DG     H23 6532   3.036   4.118   0.254 -0.5566  1.9409 -0.7449
  285DG      C1 6533   0.984   0.177   0.635  0.1561 -1.2380 -0.0825
  285DG      C2 6534   1.260   0.892   0.648  0.5636  0.8562 -0.3326
  285DG      H3 6535   0.909   0.112   0.585 -1.1104  0.1901 -0.6219
  285DG      H4 6536   1.017   0.127   0.723 -2.1592  1.8370 -0.1203
  285DG      H5 6537   1.069   0.190   0.575 -2.0553  0.0089  1.5410
  285DG      H6 6538   1.208   0.930   0.736  2.0839  2.2746 -1.6053
  285DG      H7 6539   1.352   0.889   0.689 -0.3881 -0.5461  0.4305
  285DG      H8 6540   1.256   0.970   0.576 -0.7817  0.4568  0.1565
  285DG      O9 6541   0.913   0.297   0.671  0.1475  0.2138 -0.1829
  285DG     O10 6542   1.208   0.767   0.602 -0.4527 -0.0020  0.1985
  285DG     C11 6543   1.002   0.399   0.734  0.5604  0.4542  0.1774
  285DG     C12 6544   1.312   0.676   0.569 -0.1690 -0.2867 -0.2603
  285DG     H13 6545   1.071   0.364   0.810 -0.7186 -0.4266  0.2688
  285DG     H14 6546   0.930   0.448   0.794  1.7744  2.3232  3.5122
  285DG     H15 6547   1.381   0.653   0.650 -2.4501  3.5332  1.4969
  285DG     H16 6548   1.380   0.723   0.496 -1.2265 -2.0880  1.1323
  285DG     C17 6549   1.053   0.501   0.636 -0.6903  0.2172 -0.5894
  285DG     C18 6550   1.253   0.547   0.508  0.7503 -0.7163 -0.1599
  285DG     O19 6551   1.182   0.464   0.592  0.3676  0.3067 -0.2257
  285DG     H20 6552   1.066   0.604   0.682  0.1327 -0.2723  1.3785
  285DG     H21 6553   0.985   0.509   0.549  4.4510  2.2326 -1.3058
  285DG     H22 6554   1.198   0.564   0.414  2.0117 -1.2786 -1.3471
  285DG     H23 6555   1.341   0.499   0.472 -2.1873  3.8888  0.1183
  286DG      C1 6556   4.864   0.485   0.887 -0.2670  0.2814 -0.2954
  286DG      C2 6557   5.424  -0.115   1.064  1.1932 -0.0366  0.1201
  286DG      H3 6558   4.864   0.538   0.792 -0.9004  0.1980 -0.6786
  286DG      H4 6559   4.849   0.557   0.970 -0.0659  4.3740  0.0691
  286DG      H5 6560   4.790   0.409   0.883  2.1595  0.9206 -0.6570
  286DG      H6 6561   5.496  -0.181   1.014 -0.9596  0.5873 -4.2843
  286DG      H7 6562   5.472  -0.061   1.145 -1.8014 -2.1523  4.6029
  286DG      H8 6563   5.336  -0.170   1.114 -2.4725  0.2296  0.6832
  286DG      O9 6564   4.987   0.414   0.887 -0.1941 -0.2713 -0.5846
  286DG     O10 6565   5.379  -0.015   0.975 -0.0451 -0.2627 -0.0818
  286DG     C11 6566   5.097   0.492   0.933  0.8315  0.4134 -0.0740
  286DG     C12 6567   5.273   0.066   1.023 -0.0412  0.4530 -0.0510
  286DG     H13 6568   5.099   0.508   1.044  1.6233 -0.8601  0.5222
  286DG     H14 6569   5.106   0.582   0.882 -1.9793 -3.6657  1.0059
  286DG     H15 6570   5.282   0.091   1.130  0.7171  1.0986  0.2128
  286DG     H16 6571   5.178   0.020   1.007  2.1469  1.8852  0.1159
  286DG     C17 6572   5.217   0.402   0.898 -0.1770 -0.9274 -0.2728
  286DG     C18 6573   5.292   0.182   0.931 -0.2983  0.3159 -0.3779
  286DG     O19 6574   5.204   0.282   0.968  0.3606  0.0164  0.5924
  286DG     H20 6575   5.306   0.463   0.922  1.6057  0.5284  0.7526
  286DG     H21 6576   5.207   0.394   0.787 -0.7127 -0.6160 -2.3762
  286DG     H22 6577   5.391   0.222   0.940  0.1907  1.1130 -0.9016
  286DG     H23 6578   5.269   0.152   0.827  1.0505  1.6952  1.2610
  287DG      C1 6579   5.489   3.169   2.266  0.5256  0.5638  0.0695
  287DG      C2 6580   5.513   3.617   1.779  0.3943  0.6696  0.2289
  287DG      H3 6581   5.563   3.095   2.227 -1.1291 -1.6320  1.2237
  287DG      H4 6582   5.397   3.149   2.219  1.0876 -0.0649  0.0218
  287DG      H5 6583   5.479   3.166   2.372 -3.5381 -0.8927 -2.2374
  287DG      H6 6584   5.516   3.533   1.708  0.9333 -1.7779 -3.5187
  287DG      H7 6585   5.415   3.639   1.799  0.3694  2.1899  1.1228
  287DG      H8 6586   5.541   3.709   1.735 -1.4621  0.1874 -1.3962
  287DG      O9 6587   5.538   3.302   2.229 -0.0596 -0.5327  0.1649
  287DG     O10 6588   5.590   3.588   1.896 -0.2533  0.0039 -0.0177
  287DG     C11 6589   5.675   3.314   2.269  0.7453 -0.0315  0.3577
  287DG     C12 6590   5.724   3.546   1.865  0.2927  0.6192  0.1587
  287DG     H13 6591   5.754   3.234   2.246  1.0853  1.9033 -1.6019
  287DG     H14 6592   5.674   3.318   2.376 -0.3540  1.5941 -0.7012
  287DG     H15 6593   5.774   3.606   1.797 -2.2953  0.6230  1.0823
  287DG     H16 6594   5.720   3.444   1.826 -0.3983 -0.8013  2.6311
  287DG     C17 6595   5.727   3.447   2.220 -0.5078 -0.2240 -0.4757
  287DG     C18 6596   5.790   3.546   2.011  0.5577 -0.1858  0.1614
  287DG     O19 6597   5.713   3.448   2.083  1.0132  0.3667  0.1281
  287DG     H20 6598   5.833   3.472   2.247 -0.1462  1.5541  0.0262
  287DG     H21 6599   5.653   3.519   2.266 -0.0660  1.1130 -0.2790
  287DG     H22 6600   5.891   3.509   2.012 -2.1378 -0.0047 -2.3566
  287DG     H23 6601   5.796   3.650   2.038 -0.9175 -0.6462 -1.5470
  288DG      C1 6602   0.354   1.685   5.223  0.0839  0.3254 -0.5224
  288DG      C2 6603  -0.137   2.093   5.465  0.2996 -0.0941 -0.2596
  288DG      H3 6604   0.356   1.743   5.135 -0.8931  0.7793  0.4019
  288DG      H4 6605   0.283   1.601   5.216 -1.1520 -1.9656  1.1510
  288DG      H5 6606   0.448   1.637   5.239 -0.0726  2.9666  0.0918
  288DG      H6 6607  -0.126   2.130   5.362  0.1510  1.0298  2.4552
  288DG      H7 6608  -0.227   2.036   5.474  2.0443  1.3053 -1.6853
  288DG      H8 6609  -0.151   2.174   5.537  1.9761 -1.0963  1.5028
  288DG      O9 6610   0.322   1.776   5.325  0.5522 -0.6769  0.0021
  288DG     O10 6611  -0.025   2.026   5.506 -0.1940 -0.4193  0.0989
  288DG     C11 6612   0.340   1.717   5.452  0.5610  0.6492 -0.1344
  288DG     C12 6613  -0.022   1.975   5.634 -0.3479 -0.1613 -0.1332
  288DG     H13 6614   0.445   1.683   5.453 -1.1566 -1.0192 -0.0952
  288DG     H14 6615   0.274   1.628   5.473 -0.7561 -0.7436  0.0113
  288DG     H15 6616  -0.087   1.883   5.632  0.2491  1.5028 -0.3438
  288DG     H16 6617  -0.048   2.052   5.708  0.3430  0.9757 -3.3707
  288DG     C17 6618   0.305   1.818   5.570 -0.5151  0.1582  0.1032
  288DG     C18 6619   0.125   1.941   5.667  0.3136 -0.3795  0.0529
  288DG     O19 6620   0.174   1.863   5.560 -0.2789 -0.8220 -0.0405
  288DG     H20 6621   0.380   1.899   5.574  1.0920 -1.8662 -0.3768
  288DG     H21 6622   0.316   1.761   5.663  1.2186  0.1964 -0.4419
  288DG     H22 6623   0.173   2.045   5.656  1.8473  0.4861 -0.4329
  288DG     H23 6624   0.133   1.902   5.771  0.5735 -1.6333 -0.0014
  289DG      C1 6625   5.197   3.408   4.766 -0.5458  0.0082  0.1802
  289DG      C2 6626   4.548   3.619   4.668  0.1357  0.1410 -0.4045
  289DG      H3 6627   5.290   3.421   4.812  0.5808 -0.0345  0.8247
  289DG      H4 6628   5.194   3.435   4.661  3.0522 -1.4870 -0.0645
  289DG      H5 6629   5.157   3.304   4.767  0.2286 -2.3132  1.3952
  289DG      H6 6630   4.527   3.508   4.681  0.4261 -0.4140 -0.8310
  289DG      H7 6631   4.454   3.666   4.697  2.4858 -1.3184  0.2758
  289DG      H8 6632   4.570   3.638   4.569 -3.8257 -2.2436 -1.9744
  289DG      O9 6633   5.099   3.491   4.834  0.2430  0.2978 -0.3404
  289DG     O10 6634   4.647   3.659   4.763 -0.7352  0.0867 -0.1876
  289DG     C11 6635   5.149   3.621   4.878  0.0254  0.5360  0.3707
  289DG     C12 6636   4.711   3.775   4.729 -0.3240  0.5661 -0.6307
  289DG     H13 6637   5.194   3.669   4.795 -4.3083  1.0313  0.4149
  289DG     H14 6638   5.228   3.622   4.957  1.4454 -0.5839  1.2024
  289DG     H15 6639   4.627   3.847   4.747 -0.6320 -0.4362  0.3580
  289DG     H16 6640   4.734   3.784   4.620  3.5248 -1.2541  1.2325
  289DG     C17 6641   5.029   3.702   4.923 -0.0668  0.1703 -0.1762
  289DG     C18 6642   4.832   3.800   4.823 -0.2503 -0.0205 -0.2551
  289DG     O19 6643   4.923   3.690   4.827  0.0069 -0.5341  0.1622
  289DG     H20 6644   5.069   3.806   4.918  1.3834  1.8814  2.1601
  289DG     H21 6645   4.989   3.681   5.021  0.0522 -1.5815 -3.2180
  289DG     H22 6646   4.876   3.887   4.783 -3.3560  2.2220 -0.8290
  289DG     H23 6647   4.805   3.825   4.927 -2.0733  0.6381  0.9466
  290DG      C1 6648   0.346   4.670   2.801 -0.6142 -0.4320  0.0657
  290DG      C2 6649   0.764   4.692   3.314 -0.2842  0.2228  0.6582
  290DG      H3 6650   0.340   4.780   2.809 -0.7126 -0.2040 -2.1650
  290DG      H4 6651   0.293   4.631   2.884  0.0793 -0.0881  1.3753
  290DG      H5 6652   0.309   4.638   2.699  0.9599 -0.0237 -2.6444
  290DG      H6 6653   0.678   4.691   3.381  1.8723 -0.1520 -0.7694
  290DG      H7 6654   0.850   4.655   3.369 -0.9679 -1.8299 -0.2061
  290DG      H8 6655   0.785   4.801   3.278  0.5158  2.1442  0.3647
  290DG      O9 6656   0.471   4.611   2.814  0.2094 -0.1680  0.0860
  290DG     O10 6657   0.738   4.624   3.198  0.8265 -0.0163 -0.4802
  290DG     C11 6658   0.473   4.463   2.807 -0.3069 -0.2587  0.0709
  290DG     C12 6659   0.745   4.479   3.207  0.2642  0.1990 -0.1753
  290DG     H13 6660   0.459   4.446   2.704 -0.4061 -1.3809  1.4556
  290DG     H14 6661   0.390   4.422   2.870  2.6643  0.1297  0.8106
  290DG     H15 6662   0.664   4.437   3.273 -2.3283  0.7197  2.0144
  290DG     H16 6663   0.839   4.458   3.252 -0.4831  1.8649  0.9669
  290DG     C17 6664   0.611   4.424   2.864  0.1932 -0.6775  0.8433
  290DG     C18 6665   0.735   4.425   3.065 -0.0603  0.2249 -0.3927
  290DG     O19 6666   0.624   4.474   2.991 -0.1495 -0.2179  0.2345
  290DG     H20 6667   0.691   4.458   2.805  2.0348 -1.1788  0.2919
  290DG     H21 6668   0.628   4.314   2.874  2.3166 -1.4043 -1.2125
  290DG     H22 6669   0.831   4.453   3.017 -2.0036  0.5647 -0.9638
  290DG     H23 6670   0.733   4.316   3.068 -0.5020  1.0236 -0.1705
  291DG      C1 6671   0.204   5.302   4.073  0.5153 -0.5425  0.7775
  291DG      C2 6672   0.730   5.456   4.418 -0.2428  0.1995 -0.1863
  291DG      H3 6673   0.154   5.388   4.119 -1.2698 -2.0186 -3.3339
  291DG      H4 6674   0.194   5.233   4.155 -0.8682  0.2926 -2.4878
  291DG      H5 6675   0.141   5.261   3.995  0.1485  0.1105 -4.2895
  291DG      H6 6676   0.658   5.526   4.471 -3.1414  1.8257 -1.3442
  291DG      H7 6677   0.753   5.362   4.466  1.0893 -4.4711 -1.3644
  291DG      H8 6678   0.822   5.520   4.417  1.1352  1.4323  0.7421
  291DG      O9 6679   0.331   5.322   4.037  0.3324  0.5605 -0.0458
  291DG     O10 6680   0.690   5.425   4.288  0.4124  0.1849 -0.0064
  291DG     C11 6681   0.386   5.204   3.981 -0.1208  0.1427  0.2390
  291DG     C12 6682   0.789   5.365   4.211 -0.3010  0.7167 -0.2565
  291DG     H13 6683   0.341   5.189   3.887 -3.2531 -2.5842  0.1245
  291DG     H14 6684   0.374   5.114   4.036 -0.9853  0.4423 -2.8597
  291DG     H15 6685   0.808   5.273   4.265 -0.4495 -0.9593  0.9679
  291DG     H16 6686   0.878   5.421   4.198  2.6917 -0.4303 -0.5138
  291DG     C17 6687   0.533   5.240   3.962  0.4053 -0.0533  0.0201
  291DG     C18 6688   0.729   5.328   4.071 -0.4371 -0.4259  0.3795
  291DG     O19 6689   0.601   5.268   4.086  0.0440  0.2109  0.0945
  291DG     H20 6690   0.545   5.326   3.898 -2.3608  1.9393 -0.3391
  291DG     H21 6691   0.574   5.158   3.908 -2.5392 -0.2087  0.7930
  291DG     H22 6692   0.723   5.417   4.001  0.6526  0.2621 -2.7359
  291DG     H23 6693   0.789   5.260   4.018  0.9089  0.4428  2.2885
  292DG      C1 6694   2.331   1.647   4.692 -0.2947 -0.5052 -0.0622
  292DG      C2 6695   2.341   1.415   5.440  0.0720  0.2716  0.1026
  292DG      H3 6696   2.258   1.673   4.613  1.9318 -0.9768  0.9240
  292DG      H4 6697   2.387   1.560   4.665  0.5955 -3.1161 -0.9477
  292DG      H5 6698   2.402   1.725   4.696  0.7543  2.2705 -3.3961
  292DG      H6 6699   2.332   1.333   5.372  1.2733  1.1898  0.5129
  292DG      H7 6700   2.444   1.425   5.472 -1.5926  2.0595  2.2657
  292DG      H8 6701   2.281   1.379   5.520  1.1996 -0.4693 -1.0386
  292DG      O9 6702   2.283   1.618   4.823  0.2124  0.1345 -0.2097
  292DG     O10 6703   2.291   1.544   5.391  0.3531  0.0415  0.2890
  292DG     C11 6704   2.187   1.714   4.875  0.4521  0.7551 -0.2121
  292DG     C12 6705   2.324   1.569   5.258 -0.4761  0.4749  1.0192
  292DG     H13 6706   2.087   1.696   4.840 -0.1380  0.0888  1.4498
  292DG     H14 6707   2.210   1.816   4.847 -0.5144 -0.0636 -0.6994
  292DG     H15 6708   2.273   1.502   5.194 -3.4887 -0.5519  0.4126
  292DG     H16 6709   2.426   1.554   5.244 -2.2096 -0.6202  0.7400
  292DG     C17 6710   2.172   1.688   5.026  0.8668 -0.4244  0.5466
  292DG     C18 6711   2.295   1.708   5.228  0.4071 -0.2217  0.2657
  292DG     O19 6712   2.296   1.731   5.088 -0.1844  0.2922  0.3365
  292DG     H20 6713   2.157   1.578   5.027  0.9837 -0.1299  0.2640
  292DG     H21 6714   2.091   1.751   5.065 -0.3775 -1.2099  0.3472
  292DG     H22 6715   2.197   1.738   5.262 -1.4321  0.7185 -1.4690
  292DG     H23 6716   2.359   1.786   5.286  0.4618  3.8555 -1.1434
  293DG      C1 6717   0.996   5.424   5.308 -0.1461  0.3540 -0.6252
  293DG      C2 6718   0.795   5.889   5.685 -0.0068  0.7719 -0.3824
  293DG      H3 6719   1.088   5.459   5.269  0.1894 -2.7190 -1.6117
  293DG      H4 6720   0.922   5.485   5.256  1.7263 -0.7648 -1.3424
  293DG      H5 6721   0.988   5.325   5.276 -3.0198 -2.2088 -2.3566
  293DG      H6 6722   0.864   5.973   5.697  0.4841  0.4442 -0.4026
  293DG      H7 6723   0.727   5.896   5.594 -2.4421 -2.1118  1.9224
  293DG      H8 6724   0.716   5.876   5.759 -0.5439  2.8210 -0.9856
  293DG      O9 6725   0.979   5.427   5.450 -0.1881  0.2252  0.3832
  293DG     O10 6726   0.871   5.774   5.669  0.2731 -0.5658  0.1201
  293DG     C11 6727   1.068   5.356   5.535  0.6375 -0.2820  0.5582
  293DG     C12 6728   0.945   5.733   5.786 -0.8968  0.1725 -0.2526
  293DG     H13 6729   1.148   5.302   5.473  2.6860  2.0552  0.9513
  293DG     H14 6730   1.010   5.284   5.596  1.0369 -1.4496  0.7317
  293DG     H15 6731   0.873   5.692   5.851 -0.5288 -0.9580  0.5967
  293DG     H16 6732   0.990   5.816   5.847  1.2056  1.0849  0.8884
  293DG     C17 6733   1.129   5.466   5.619 -0.3518 -0.4369 -0.4636
  293DG     C18 6734   1.058   5.636   5.766 -0.2418  0.7557  0.1632
  293DG     O19 6735   1.014   5.526   5.681 -0.5770  0.6271 -0.0027
  293DG     H20 6736   1.185   5.540   5.560  0.7191 -2.3839  3.5564
  293DG     H21 6737   1.186   5.413   5.692  0.3202 -4.6893  0.1001
  293DG     H22 6738   1.135   5.700   5.716 -0.9973 -1.5016 -0.9298
  293DG     H23 6739   1.106   5.606   5.864  2.6089 -1.6042 -0.5829
  294DG      C1 6740   1.287   1.522   1.234  0.2540  0.0322  0.9324
  294DG      C2 6741   0.698   1.011   1.327 -0.6093  0.4196  0.7051
  294DG      H3 6742   1.343   1.590   1.298 -4.3431 -1.2879 -2.9000
  294DG      H4 6743   1.184   1.553   1.239 -0.0032  0.6866 -1.1576
  294DG      H5 6744   1.326   1.532   1.140 -0.1454 -0.7830  1.6585
  294DG      H6 6745   0.686   1.078   1.243 -3.5179 -1.2677 -0.9246
  294DG      H7 6746   0.669   0.915   1.288 -0.0238  1.6304 -0.6612
  294DG      H8 6747   0.615   1.026   1.404  1.6468  0.7158 -0.3281
  294DG      O9 6748   1.280   1.384   1.264 -0.1766  0.3350 -0.0588
  294DG     O10 6749   0.839   1.017   1.363 -0.3145 -0.4028 -0.4285
  294DG     C11 6750   1.222   1.340   1.388 -0.0092 -0.2006 -0.1875
  294DG     C12 6751   0.928   0.960   1.269 -0.6317 -0.3979  0.2485
  294DG     H13 6752   1.124   1.387   1.400 -0.9208  2.5493 -0.1294
  294DG     H14 6753   1.287   1.373   1.471  1.4058 -0.4116 -1.8930
  294DG     H15 6754   0.904   1.001   1.168 -2.1584  0.6833  0.2853
  294DG     H16 6755   0.913   0.855   1.273  0.2762  0.2240 -0.6308
  294DG     C17 6756   1.218   1.182   1.377 -0.1438  0.5020 -0.6634
  294DG     C18 6757   1.076   0.999   1.306 -0.1430 -0.0466  0.2600
  294DG     O19 6758   1.087   1.138   1.321 -0.2665 -0.5633  0.5241
  294DG     H20 6759   1.237   1.138   1.477  0.8111 -0.9472  1.0692
  294DG     H21 6760   1.297   1.148   1.304  1.3239  1.0415  0.5917
  294DG     H22 6761   1.108   0.948   1.400 -1.2344 -2.5371  1.3453
  294DG     H23 6762   1.159   0.968   1.231  3.0255  1.3823 -0.3571
  295DG      C1 6763   2.426   0.241   1.571 -0.1903  0.3063 -0.9401
  295DG      C2 6764   3.063   0.391   1.920  0.6393  0.0914 -0.5389
  295DG      H3 6765   2.429   0.212   1.470 -2.5653  3.6453 -0.8202
  295DG      H4 6766   2.407   0.345   1.579 -0.7450  0.4260 -3.2990
  295DG      H5 6767   2.349   0.182   1.619 -1.2262  0.7408  1.4296
  295DG      H6 6768   3.174   0.378   1.921  1.5926 -2.3269 -0.3509
  295DG      H7 6769   3.037   0.492   1.887  0.2248  1.6045 -1.8035
  295DG      H8 6770   3.005   0.365   2.007  2.1698 -1.6874  1.6801
  295DG      O9 6771   2.552   0.207   1.637 -0.0138  0.1800  0.1174
  295DG     O10 6772   3.019   0.324   1.804 -0.3876  0.0213 -0.3148
  295DG     C11 6773   2.582   0.068   1.648 -0.0247 -0.3469 -0.2455
  295DG     C12 6774   3.042   0.185   1.819 -0.0364  0.0670  0.0162
  295DG     H13 6775   2.531   0.008   1.577 -0.7292 -0.5695  1.0682
  295DG     H14 6776   2.540   0.038   1.744  1.8120 -1.2405 -1.7097
  295DG     H15 6777   3.015   0.153   1.915 -0.8259  1.7419  0.6880
  295DG     H16 6778   3.144   0.144   1.806 -2.4118  0.2778  0.6243
  295DG     C17 6779   2.732   0.041   1.639 -0.5844  0.0430  0.8015
  295DG     C18 6780   2.953   0.112   1.718  0.2487  0.1295  0.3056
  295DG     O19 6781   2.810   0.140   1.720  0.0685  0.0922 -0.5457
  295DG     H20 6782   2.761   0.056   1.532 -0.0996 -0.1526  1.7425
  295DG     H21 6783   2.745  -0.077   1.647  1.5231 -0.4187 -0.7857
  295DG     H22 6784   2.990   0.133   1.617 -2.1360 -1.9084 -3.6110
  295DG     H23 6785   2.956   0.002   1.738 -0.0808 -0.0887  0.4232
  296DG      C1 6786   0.054   1.918   0.648  0.0296 -0.3410  0.6804
  296DG      C2 6787  -0.314   2.039   1.189  0.4269  0.5638 -0.7353
  296DG      H3 6788   0.164   1.895   0.649  2.8357 -4.3057  0.6933
  296DG      H4 6789   0.031   1.944   0.544 -3.6562 -0.7214 -4.5128
  296DG      H5 6790   0.013   1.825   0.664  1.0705  1.5505 -0.8370
  296DG      H6 6791  -0.399   2.094   1.220  0.6315 -1.4862  1.6066
  296DG      H7 6792  -0.349   1.934   1.187 -2.0010 -1.0422 -1.2926
  296DG      H8 6793  -0.240   2.047   1.268 -0.0240  1.8745  0.3555
  296DG      O9 6794   0.016   2.013   0.753 -0.2381 -0.3776  0.2241
  296DG     O10 6795  -0.274   2.099   1.063  0.0047  0.2643  0.3440
  296DG     C11 6796   0.044   2.147   0.709  0.4322  0.4090 -0.6876
  296DG     C12 6797  -0.223   2.232   1.076 -0.0039  0.0005  0.1212
  296DG     H13 6798  -0.012   2.174   0.615 -0.9508  0.6206 -0.1910
  296DG     H14 6799   0.139   2.174   0.673  0.2014 -1.0738 -0.2942
  296DG     H15 6800  -0.124   2.216   1.117  0.2740 -1.2625 -2.1831
  296DG     H16 6801  -0.278   2.303   1.143  0.0261 -1.6934 -0.2433
  296DG     C17 6802  -0.013   2.232   0.823 -0.8255 -0.0295 -0.2100
  296DG     C18 6803  -0.214   2.294   0.933 -0.2258 -0.3648 -0.0134
  296DG     O19 6804  -0.155   2.205   0.836 -0.0251 -0.2297 -0.3830
  296DG     H20 6805   0.003   2.337   0.809  0.8590  0.1042  1.4934
  296DG     H21 6806   0.040   2.202   0.914  0.6206 -1.4198  0.7406
  296DG     H22 6807  -0.312   2.310   0.897  0.8480 -0.6452  1.5872
  296DG     H23 6808  -0.172   2.390   0.919  0.3351 -3.1035 -0.4779
  297DG      C1 6809   2.536   5.030   4.753  0.5153  0.1930  0.0963
  297DG      C2 6810   2.680   5.515   4.281 -0.6392 -0.4504  0.0687
  297DG      H3 6811   2.628   4.981   4.775 -0.5620  1.8182  1.1951
  297DG      H4 6812   2.465   4.953   4.783 -0.5423  1.2252  0.6714
  297DG      H5 6813   2.531   5.108   4.829 -0.3003 -2.0904  1.2942
  297DG      H6 6814   2.786   5.480   4.307  0.7575 -2.2589  2.1598
  297DG      H7 6815   2.682   5.535   4.173  0.7871  1.3360  2.1925
  297DG      H8 6816   2.670   5.611   4.330  0.6978 -1.4571 -1.8588
  297DG      O9 6817   2.525   5.086   4.614  0.0499 -0.2059  0.2371
  297DG     O10 6818   2.569   5.425   4.310 -0.4678  0.1613 -0.1474
  297DG     C11 6819   2.494   4.982   4.522 -0.2879 -0.2109  0.0330
  297DG     C12 6820   2.548   5.326   4.205 -1.2364  0.1878 -0.2009
  297DG     H13 6821   2.424   4.907   4.559 -0.5648 -1.7935 -0.5008
  297DG     H14 6822   2.587   4.938   4.485  0.9358  2.4049 -1.0302
  297DG     H15 6823   2.658   5.294   4.176  2.1476  0.9968  1.4061
  297DG     H16 6824   2.509   5.383   4.119  2.4484  1.6693  4.2168
  297DG     C17 6825   2.426   5.040   4.404 -0.0242  0.1744 -0.4035
  297DG     C18 6826   2.458   5.210   4.240  0.1543  0.6668 -0.0471
  297DG     O19 6827   2.490   5.157   4.371 -0.0258  0.0894  0.2086
  297DG     H20 6828   2.320   5.062   4.422  1.9662  0.4990 -4.0479
  297DG     H21 6829   2.431   4.969   4.327  1.1097 -1.3939  1.0530
  297DG     H22 6830   2.352   5.240   4.233 -3.2797  1.2314 -2.2544
  297DG     H23 6831   2.461   5.131   4.163 -1.1145 -2.0929  0.6778
  298DG      C1 6832   3.858   3.468   1.859 -0.3683  0.4484  0.6628
  298DG      C2 6833   4.047   4.186   1.658  0.7125 -0.5285 -0.6472
  298DG      H3 6834   3.789   3.429   1.779  0.0989 -2.5107 -1.0379
  298DG      H4 6835   3.869   3.407   1.945  1.4046 -0.4175  1.6989
  298DG      H5 6836   3.961   3.464   1.806  1.4565 -1.6300 -0.5590
  298DG      H6 6837   3.992   4.284   1.651  0.3330  1.1072 -0.7855
  298DG      H7 6838   4.153   4.203   1.636 -0.7007 -0.1552 -2.8089
  298DG      H8 6839   4.018   4.137   1.569 -0.0342  2.6185  0.9084
  298DG      O9 6840   3.810   3.600   1.900 -0.0486  0.1149  0.1120
  298DG     O10 6841   4.003   4.103   1.771 -0.5757  0.4666 -0.2358
  298DG     C11 6842   3.879   3.653   2.010  0.8548  0.0651  1.1223
  298DG     C12 6843   4.027   3.963   1.738  0.5133  0.0198  0.2133
  298DG     H13 6844   3.984   3.629   2.018 -0.6414  0.2058  1.4654
  298DG     H14 6845   3.842   3.608   2.101  1.1662  2.3521  0.5217
  298DG     H15 6846   4.127   3.948   1.701  1.7598  0.0549 -3.0722
  298DG     H16 6847   3.957   3.940   1.661 -0.9662 -1.1626 -0.3628
  298DG     C17 6848   3.849   3.805   2.018 -0.6827 -0.5052 -0.0581
  298DG     C18 6849   4.011   3.868   1.851 -0.6213 -0.2188 -0.3199
  298DG     O19 6850   3.876   3.880   1.895  0.3808 -0.2500 -0.3673
  298DG     H20 6851   3.912   3.851   2.097 -2.6797 -0.0499  0.1653
  298DG     H21 6852   3.748   3.811   2.049  1.8663 -1.6064 -2.5906
  298DG     H22 6853   4.017   3.764   1.821  0.9054 -3.2560  4.2145
  298DG     H23 6854   4.087   3.883   1.928 -0.4709 -1.6057 -1.1111
  299DG      C1 6855   1.731   1.812   4.172  0.2597 -0.4686 -0.5019
  299DG      C2 6856   1.853   1.689   3.301 -0.0638 -0.2062 -0.3520
  299DG      H3 6857   1.650   1.801   4.103  1.0761 -1.3967  0.4875
  299DG      H4 6858   1.733   1.916   4.194 -1.6219  0.7238 -0.3970
  299DG      H5 6859   1.705   1.752   4.256 -0.3375  2.3779  0.8388
  299DG      H6 6860   1.825   1.793   3.282 -1.2928 -2.8359 -0.9201
  299DG      H7 6861   1.958   1.676   3.273 -3.6604 -1.0049 -4.0692
  299DG      H8 6862   1.791   1.639   3.228  0.0859  0.5064  0.3613
  299DG      O9 6863   1.859   1.780   4.113 -0.2180 -0.4107 -0.4905
  299DG     O10 6864   1.832   1.644   3.437 -0.3673 -0.0493 -0.7576
  299DG     C11 6865   1.885   1.848   3.992  0.9972 -0.2443  0.2737
  299DG     C12 6866   1.872   1.748   3.520 -0.0978  0.0428 -0.2313
  299DG     H13 6867   1.992   1.842   3.987 -1.6037  0.3465  0.6843
  299DG     H14 6868   1.849   1.948   4.008  0.1004 -1.1834 -2.0103
  299DG     H15 6869   1.815   1.843   3.511  0.4730 -1.0305  0.8012
  299DG     H16 6870   1.978   1.772   3.507  2.9715  0.0114 -0.6981
  299DG     C17 6871   1.810   1.778   3.881 -0.2007  0.5765  0.7562
  299DG     C18 6872   1.833   1.699   3.664  0.4962  0.0412 -0.1146
  299DG     O19 6873   1.870   1.796   3.757  0.0316 -0.2854 -0.5181
  299DG     H20 6874   1.703   1.799   3.870  1.7350 -3.1590 -1.4549
  299DG     H21 6875   1.820   1.670   3.903  1.2822 -0.6611 -2.4446
  299DG     H22 6876   1.723   1.694   3.656  0.2135  0.9623  3.6360
  299DG     H23 6877   1.885   1.606   3.685 -2.7708 -2.0954  0.5418
  300DG      C1 6878   0.654   3.782   2.438  0.6394 -0.0127 -0.0229
  300DG      C2 6879   0.254   3.699   2.945 -0.3359 -0.6339  0.3064
  300DG      H3 6880   0.568   3.828   2.394 -0.8533 -0.4217  0.3461
  300DG      H4 6881   0.737   3.776   2.367 -2.0194 -0.6313  1.3463
  300DG      H5 6882   0.697   3.849   2.503  1.3895  0.3374  0.4842
  300DG      H6 6883   0.235   3.643   3.030  0.5631  0.5452 -0.8810
  300DG      H7 6884   0.308   3.778   2.991 -1.7988 -2.4651  0.8424
  300DG      H8 6885   0.164   3.739   2.906  1.7069  1.1852 -0.0781
  300DG      O9 6886   0.608   3.660   2.503 -0.4049 -0.5198 -0.3443
  300DG     O10 6887   0.327   3.641   2.834  0.1960  0.1566 -0.1338
  300DG     C11 6888   0.569   3.553   2.424 -0.5412  0.4713  0.7662
  300DG     C12 6889   0.245   3.547   2.770  0.0843 -0.3327 -0.2354
  300DG     H13 6890   0.654   3.510   2.380 -5.6769 -0.1185  2.1269
  300DG     H14 6891   0.503   3.599   2.353  0.6747  0.2249  0.5703
  300DG     H15 6892   0.159   3.609   2.727 -2.6220  0.9529  2.5118
  300DG     H16 6893   0.193   3.487   2.843 -1.0134  0.4990  2.7096
  300DG     C17 6894   0.495   3.460   2.515  0.3898 -0.1992 -0.9126
  300DG     C18 6895   0.319   3.451   2.680  0.0716 -0.0576 -0.0405
  300DG     O19 6896   0.404   3.532   2.595  0.0956  0.3028 -0.1985
  300DG     H20 6897   0.565   3.412   2.585 -0.6807 -1.3575  0.3540
  300DG     H21 6898   0.439   3.376   2.466 -2.5127 -1.0319 -0.2659
  300DG     H22 6899   0.387   3.385   2.737 -0.2491 -0.6191  1.5098
  300DG     H23 6900   0.243   3.388   2.619 -2.0838 -0.8021 -0.4752
  301THF     O1 6901   5.288   3.481   3.651 -0.0082 -0.4176  0.1888
  301THF     C2 6902   5.413   3.457   3.706 -0.1268 -0.2690  0.2632
  301THF     C3 6903   5.281   3.615   3.603  0.0066  0.4539 -0.1288
  301THF     H4 6904   5.473   3.420   3.625  2.1240  3.9527  1.2063
  301THF     H5 6905   5.415   3.380   3.786 -0.7058 -2.6101  0.8760
  301THF     H6 6906   5.331   3.623   3.508 -1.5435 -1.9275  1.8817
  301THF     H7 6907   5.182   3.648   3.578 -0.2271  1.9102  2.7622
  301THF     C8 6908   5.357   3.703   3.701 -0.6806 -0.5406 -0.6064
  301THF     C9 6909   5.454   3.597   3.763  0.0135 -0.4588 -0.7870
  301THF    H10 6910   5.290   3.742   3.782  0.4390  1.5185  3.4098
  301THF    H11 6911   5.412   3.791   3.664  0.3074 -1.3317  1.7676
  301THF    H12 6912   5.559   3.627   3.757  0.4784  0.9308  0.0830
  301THF    H13 6913   5.442   3.593   3.873 -0.6098  1.8925 -3.3672
  302THF     O1 6914   2.872   4.245   2.748  0.1284  0.4327  0.4784
  302THF     C2 6915   2.904   4.101   2.732  0.2887 -0.6374  0.2839
  302THF     C3 6916   2.731   4.261   2.757  0.0506  0.3711 -0.0526
  302THF     H4 6917   2.994   4.065   2.788  0.9100  1.9837  0.9955
  302THF     H5 6918   2.914   4.079   2.627 -1.4066 -2.0456  0.3099
  302THF     H6 6919   2.704   4.352   2.815  2.3352 -0.0766 -2.0752
  302THF     H7 6920   2.672   4.246   2.666  0.6633 -0.1502 -0.7379
  302THF     C8 6921   2.695   4.151   2.853  0.0088 -0.6946  0.0253
  302THF     C9 6922   2.777   4.039   2.796 -0.0287 -0.2472 -0.1800
  302THF    H10 6923   2.585   4.130   2.850 -1.2155  1.6551  0.7304
  302THF    H11 6924   2.712   4.183   2.951  0.4479 -3.2762  0.2754
  302THF    H12 6925   2.809   3.971   2.869 -1.6419  2.0716  1.7422
  302THF    H13 6926   2.724   3.978   2.717 -0.4358 -2.3517 -1.6799
  303THF     O1 6927   4.824   4.027   3.740  0.1194 -0.2163  0.0223
  303THF     C2 6928   4.772   4.099   3.859  0.6416  0.1477 -0.2052
  303THF     C3 6929   4.709   3.975   3.672 -0.4584  1.1490 -0.2029
  303THF     H4 6930   4.768   4.207   3.845  2.4498 -2.0008 -0.1045
  303THF     H5 6931   4.848   4.086   3.930  0.8001  2.2072 -0.9008
  303THF     H6 6932   4.664   4.050   3.605 -1.3971  0.2052  1.0087
  303THF     H7 6933   4.732   3.886   3.614  0.6164 -0.8996  3.6490
  303THF     C8 6934   4.615   3.932   3.787 -0.0019 -0.7009 -0.2147
  303THF     C9 6935   4.637   4.037   3.890  0.0234 -0.1907 -0.5533
  303THF    H10 6936   4.645   3.834   3.824 -3.0570  1.9118 -1.4971
  303THF    H11 6937   4.514   3.920   3.761  1.7929 -3.5478 -0.3741
  303THF    H12 6938   4.560   4.111   3.868  1.0843 -3.1233 -3.3636
  303THF    H13 6939   4.637   4.008   3.996 -0.6151  0.0932  1.4993
  304THF     O1 6940   0.993   4.659   5.167 -0.2684  0.1691  0.0606
  304THF     C2 6941   1.058   4.680   5.042  0.5855 -0.7790  0.5988
  304THF     C3 6942   0.864   4.710   5.144 -0.3185 -0.4690 -0.0994
  304THF     H4 6943   1.148   4.615   5.028  0.3208 -1.2676  0.0722
  304THF     H5 6944   1.083   4.780   5.028 -1.4266 -0.8874 -0.2927
  304THF     H6 6945   0.795   4.682   5.228  1.6616 -1.5979  3.6481
  304THF     H7 6946   0.866   4.820   5.147 -0.8182 -0.1174 -0.1565
  304THF     C8 6947   0.815   4.660   5.013 -0.1360 -0.1579 -0.2470
  304THF     C9 6948   0.944   4.661   4.936 -0.6990  0.4266  0.2358
  304THF    H10 6949   0.741   4.719   4.973  0.0731 -1.2927  3.8938
  304THF    H11 6950   0.772   4.564   5.018 -2.0347 -1.4447 -0.2344
  304THF    H12 6951   0.963   4.564   4.886 -2.7707  2.3357 -1.2748
  304THF    H13 6952   0.956   4.725   4.852 -1.6111  2.0404 -2.1104
  305THF     O1 6953   3.911   5.171   2.346 -0.3648  0.2349  0.1443
  305THF     C2 6954   3.925   5.078   2.235 -0.7496 -1.3909  0.1231
  305THF     C3 6955   3.819   5.121   2.439  0.4032 -0.1171  0.7320
  305THF     H4 6956   4.014   5.021   2.261 -2.6546  1.9432  0.3929
  305THF     H5 6957   3.949   5.132   2.139 -0.0483 -2.2319 -1.5584
  305THF     H6 6958   3.865   5.121   2.544  3.4217 -1.4548  4.8063
  305THF     H7 6959   3.731   5.180   2.428  2.3931 -3.3682  1.2931
  305THF     C8 6960   3.788   4.977   2.395 -0.7679  0.9394 -0.7120
  305THF     C9 6961   3.806   4.984   2.240  0.3187 -0.1233  0.0230
  305THF    H10 6962   3.686   4.939   2.419  0.0692 -0.0368  1.7866
  305THF    H11 6963   3.852   4.904   2.445 -2.1551  0.1637 -0.6097
  305THF    H12 6964   3.834   4.883   2.202  0.0580 -2.2914  0.8985
  305THF    H13 6965   3.726   5.036   2.185  1.5867 -0.3673 -1.3154
  306THF     O1 6966   5.013   5.078   5.249  0.5049  0.0145  0.3630
  306THF     C2 6967   4.892   5.156   5.228  0.0229  0.2059 -0.1322
  306THF     C3 6968   5.044   5.065   5.389  0.3732 -0.1295 -0.4232
  306THF     H4 6969   4.807   5.086   5.207 -0.2184 -0.9499  1.9799
  306THF     H5 6970   4.903   5.232   5.154 -0.6913 -0.7317  1.7301
  306THF     H6 6971   5.075   4.973   5.418 -0.0830 -0.7967 -0.6510
  306THF     H7 6972   5.135   5.118   5.404 -0.2530  0.0953  0.2823
  306THF     C8 6973   4.928   5.127   5.466  0.2166 -0.1865  0.2380
  306THF     C9 6974   4.860   5.219   5.373 -0.1274 -0.1237  0.1224
  306THF    H10 6975   4.949   5.173   5.558  2.3348  1.7877 -0.5366
  306THF    H11 6976   4.861   5.045   5.497 -1.1756  3.7919  0.9103
  306THF    H12 6977   4.758   5.227   5.396 -1.2708 -0.8412  0.8003
  306THF    H13 6978   4.897   5.321   5.385  1.7725 -1.5216 -1.2892
  307THF     O1 6979   3.453   3.764   5.245  0.2404  0.6486 -0.2075
  307THF     C2 6980   3.324   3.707   5.234  0.2519  0.1686 -0.2239
  307THF     C3 6981   3.546   3.658   5.265  0.1152  0.1396 -0.3377
  307THF     H4 6982   3.264   3.780   5.183 -1.1282  0.8285 -1.6551
  307THF     H5 6983   3.275   3.688   5.333  0.5846 -2.3793  1.3366
  307THF     H6 6984   3.645   3.684   5.236  0.9120 -0.7108 -1.6727
  307THF     H7 6985   3.545   3.623   5.371 -0.5183 -0.6812  0.5734
  307THF     C8 6986   3.501   3.555   5.164 -0.2959 -0.4387 -0.0249
  307THF     C9 6987   3.345   3.575   5.165 -0.0735 -0.4741  0.2715
  307THF    H10 6988   3.521   3.453   5.200 -0.2326 -2.5871  0.4642
  307THF    H11 6989   3.536   3.569   5.063  0.2232  1.0034 -0.8901
  307THF    H12 6990   3.302   3.566   5.066 -2.3721 -1.0670  0.3900
  307THF    H13 6991   3.290   3.495   5.216 -1.7774 -0.6158  0.6759
  308THF     O1 6992   1.537   1.478   4.379 -0.3217  0.0999  0.5151
  308THF     C2 6993   1.481   1.389   4.474  0.3182 -0.3948  0.0583
  308THF     C3 6994   1.430   1.555   4.327  0.4715 -0.5838 -0.2668
  308THF     H4 6995   1.475   1.460   4.560 -2.3968 -0.4832 -1.2350
  308THF     H5 6996   1.556   1.311   4.482 -0.6721  0.7219  2.2106
  308THF     H6 6997   1.411   1.634   4.399 -1.0513  0.2307  0.2499
  308THF     H7 6998   1.461   1.599   4.235  0.3013  1.8739  0.6226
  308THF     C8 6999   1.314   1.461   4.320 -0.1086  0.2495  1.1747
  308THF     C9 7000   1.347   1.351   4.422  0.0442  0.0126  0.7549
  308THF    H10 7001   1.305   1.419   4.220  1.7629 -2.4760 -1.0439
  308THF    H11 7002   1.224   1.524   4.324 -0.2045  0.3543  0.8928
  308THF    H12 7003   1.259   1.329   4.495 -4.1762 -1.4142 -1.3027
  308THF    H13 7004   1.353   1.256   4.363 -0.2884 -0.0261 -1.8991
  309THF     O1 7005   0.101   2.508   0.956 -0.1419  0.3547  0.0183
  309THF     C2 7006   0.213   2.533   0.875 -0.0883 -0.3218  1.2229
  309THF     C3 7007   0.151   2.460   1.083 -0.4328  0.5511 -0.1570
  309THF     H4 7008   0.260   2.633   0.882 -0.4038 -0.4582 -0.8517
  309THF     H5 7009   0.173   2.525   0.774 -0.1231  1.3122  0.7537
  309THF     H6 7010   0.171   2.552   1.138  0.1557  0.2487  1.3325
  309THF     H7 7011   0.073   2.399   1.132 -1.4885 -0.6095 -0.1379
  309THF     C8 7012   0.270   2.373   1.054 -0.4114  0.0463 -0.6659
  309THF     C9 7013   0.313   2.427   0.920  0.7673  0.2231  0.1163
  309THF    H10 7014   0.250   2.267   1.053 -1.4723  1.6822 -0.6837
  309THF    H11 7015   0.349   2.400   1.125  1.7266  0.8378 -0.5752
  309THF    H12 7016   0.416   2.461   0.931 -0.3930 -1.7035  1.2827
  309THF    H13 7017   0.318   2.360   0.841 -1.2437  0.7978  2.5538
  310THF     O1 7018   2.989   0.748   0.304  0.2619  0.5038 -0.3436
  310THF     C2 7019   2.969   0.615   0.352 -0.3871 -0.2526 -1.1968
  310THF     C3 7020   3.108   0.759   0.232  0.2916 -0.1300 -0.5630
  310THF     H4 7021   2.906   0.556   0.285 -0.4884  2.2214 -2.6007
  310THF     H5 7022   2.919   0.598   0.450 -1.6158  1.5566 -0.2381
  310THF     H6 7023   3.075   0.780   0.124 -1.5067  0.7229 -0.4874
  310THF     H7 7024   3.156   0.842   0.282 -0.0671  0.3109  0.4270
  310THF     C8 7025   3.185   0.629   0.254 -0.7441 -0.3852 -0.6191
  310THF     C9 7026   3.112   0.555   0.358  0.6003  0.1653 -0.0328
  310THF    H10 7027   3.291   0.646   0.287  1.4105 -0.2833 -0.6854
  310THF    H11 7028   3.183   0.571   0.164 -1.0352  3.1154 -1.5268
  310THF    H12 7029   3.112   0.445   0.353  0.5491 -2.1337  0.2153
  310THF    H13 7030   3.153   0.594   0.456  1.0308  1.3619  0.1435
  311THF     O1 7031   5.241   0.703   4.362  0.1951  0.2843  0.0154
  311THF     C2 7032   5.142   0.731   4.270  0.0867  0.6881  0.5365
  311THF     C3 7033   5.308   0.827   4.398  0.2237  0.5419  0.1350
  311THF     H4 7034   5.049   0.774   4.320 -1.5167  3.1696  1.1071
  311THF     H5 7035   5.105   0.640   4.219 -1.4699 -0.3724 -1.8610
  311THF     H6 7036   5.252   0.891   4.469 -0.5690  1.2254 -1.3984
  311THF     H7 7037   5.403   0.816   4.448  1.0509 -2.1090  0.8076
  311THF     C8 7038   5.324   0.897   4.266 -0.1879 -0.9227  0.4579
  311THF     C9 7039   5.210   0.843   4.184  0.3513  0.5674  0.3763
  311THF    H10 7040   5.420   0.877   4.219  1.5307  0.4909  0.1423
  311THF    H11 7041   5.309   1.009   4.282  0.1010 -1.8883 -0.4695
  311THF    H12 7042   5.141   0.916   4.135  0.2020 -0.6484 -0.5753
  311THF    H13 7043   5.252   0.790   4.100 -0.7820 -0.0312 -0.7010
  312THF     O1 7044   5.477   0.857   1.504 -0.2423 -0.3697  0.5556
  312THF     C2 7045   5.501   0.719   1.548  0.1625  0.8189 -0.1372
  312THF     C3 7046   5.576   0.883   1.406 -0.1719  0.1803  0.2187
  312THF     H4 7047   5.421   0.674   1.604  0.7375 -1.1065  3.2067
  312THF     H5 7048   5.587   0.692   1.612  1.2890  0.9719  1.4710
  312THF     H6 7049   5.561   0.974   1.353 -1.7119 -1.2634  1.3498
  312THF     H7 7050   5.676   0.875   1.453  1.1099 -0.9842  4.6925
  312THF     C8 7051   5.556   0.757   1.315  0.3971  0.2075  0.0528
  312THF     C9 7052   5.518   0.648   1.414  0.2891  0.1542  0.6503
  312THF    H10 7053   5.643   0.732   1.256  1.6886  0.3024 -0.6997
  312THF    H11 7054   5.467   0.776   1.251  1.8937 -0.5748 -2.6605
  312THF    H12 7055   5.428   0.592   1.389  0.0312  0.2781  0.4923
  312THF    H13 7056   5.605   0.577   1.411  2.4332 -0.0685 -1.3601
  313THF     O1 7057   1.471   1.046   2.462 -0.2176  0.1791  0.0120
  313THF     C2 7058   1.606   1.016   2.503  0.5242  0.0867 -0.0313
  313THF     C3 7059   1.470   1.177   2.404  0.6080 -0.6447 -0.2656
  313THF     H4 7060   1.659   0.939   2.442  0.2065  0.5830  0.6348
  313THF     H5 7061   1.608   0.993   2.610 -1.1346 -1.0384  0.0737
  313THF     H6 7062   1.474   1.177   2.291 -1.2432 -1.7009  0.1408
  313THF     H7 7063   1.381   1.238   2.426  0.2872 -3.0500  1.1323
  313THF     C8 7064   1.591   1.255   2.461  0.0573 -0.0114 -0.3133
  313THF     C9 7065   1.693   1.142   2.476 -0.5372 -0.6174  0.2443
  313THF    H10 7066   1.571   1.283   2.566 -0.6724  0.6577  1.2529
  313THF    H11 7067   1.624   1.332   2.397  1.0307  0.1005  0.7399
  313THF    H12 7068   1.738   1.115   2.380  1.2176 -5.0037  0.9489
  313THF    H13 7069   1.769   1.172   2.538  0.3381  0.9247  0.0593
  314THF     O1 7070   4.033   4.750   5.407 -0.4870 -0.2212  0.3152
  314THF     C2 7071   3.933   4.648   5.395  0.6158 -0.2746  0.0931
  314THF     C3 7072   3.965   4.864   5.453 -0.0080 -0.7964 -0.9571
  314THF     H4 7073   3.970   4.550   5.430 -1.8497 -2.5998  1.1536
  314THF     H5 7074   3.903   4.647   5.290  0.6365  2.6052  1.6186
  314THF     H6 7075   4.035   4.936   5.503 -1.1628  1.8717  1.3068
  314THF     H7 7076   3.913   4.916   5.371 -0.3382  1.5621  1.1434
  314THF     C8 7077   3.870   4.812   5.556 -0.1213 -0.1358  0.0400
  314THF     C9 7078   3.814   4.687   5.489 -0.3570 -0.3264  0.8783
  314THF    H10 7079   3.796   4.893   5.595 -0.3700 -0.4607  3.0987
  314THF    H11 7080   3.921   4.773   5.642  1.7908 -0.3813  0.7934
  314THF    H12 7081   3.794   4.599   5.560  1.1569 -1.2231 -0.7707
  314THF    H13 7082   3.722   4.709   5.430  0.0359 -1.9790 -1.6704
  315THF     O1 7083   5.301   2.889   1.770  0.1169  0.1537 -0.3494
  315THF     C2 7084   5.376   2.862   1.650 -0.3486  0.6610  0.2892
  315THF     C3 7085   5.177   2.942   1.725  0.6637  0.4732  0.8236
  315THF     H4 7086   5.443   2.777   1.659 -0.7061 -1.2552  1.0986
  315THF     H5 7087   5.441   2.952   1.636 -1.3028 -0.1348  3.7101
  315THF     H6 7088   5.100   2.872   1.768 -1.2849 -2.1955 -3.1053
  315THF     H7 7089   5.166   3.046   1.770 -2.5477 -0.1529  0.1373
  315THF     C8 7090   5.164   2.936   1.571  0.0103  0.0231  0.0200
  315THF     C9 7091   5.273   2.839   1.539 -0.0537  0.4495  0.5851
  315THF    H10 7092   5.186   3.029   1.524  0.3423 -0.4875 -1.7341
  315THF    H11 7093   5.063   2.912   1.539  0.4921  0.4350  2.0304
  315THF    H12 7094   5.233   2.740   1.541  0.1272  1.8097  0.4501
  315THF    H13 7095   5.324   2.858   1.438 -0.9934 -1.1068 -0.8183
  316THF     O1 7096   2.341   2.516   3.856  0.0594  0.2480  0.1495
  316THF     C2 7097   2.353   2.442   3.734 -0.6794 -0.1084 -0.0838
  316THF     C3 7098   2.286   2.648   3.825 -0.0024  0.3975  0.3291
  316THF     H4 7099   2.263   2.383   3.722  2.2875  2.2580 -0.8374
  316THF     H5 7100   2.436   2.374   3.749 -0.9108 -0.3572 -3.3315
  316THF     H6 7101   2.193   2.663   3.881 -2.3481 -0.3317  0.4780
  316THF     H7 7102   2.364   2.715   3.855  1.4159 -0.5550 -0.8117
  316THF     C8 7103   2.284   2.660   3.675  0.2588  0.0160 -0.1427
  316THF     C9 7104   2.376   2.552   3.633  0.0076  0.0463  0.1671
  316THF    H10 7105   2.311   2.761   3.648  1.1184  0.7510  0.4485
  316THF    H11 7106   2.186   2.634   3.638  4.3602 -2.4241 -0.8351
  316THF    H12 7107   2.352   2.525   3.534 -0.0920  2.7836 -1.4521
  316THF    H13 7108   2.481   2.578   3.635 -0.8462 -1.0491  0.7955
  317THF     O1 7109   1.564   1.047   4.085 -0.2524 -0.2091  0.1045
  317THF     C2 7110   1.451   1.104   4.149 -0.3377  0.0218  0.7195
  317THF     C3 7111   1.519   1.020   3.958  0.4687  0.0268  0.8717
  317THF     H4 7112   1.425   1.208   4.120 -0.4150 -3.0945 -2.9710
  317THF     H5 7113   1.465   1.101   4.259 -0.4200  0.3029 -0.2717
  317THF     H6 7114   1.497   1.109   3.901  1.2008  0.2608  3.4037
  317THF     H7 7115   1.583   0.952   3.902  0.8752  1.0904 -0.2527
  317THF     C8 7116   1.388   0.953   3.975  0.9681 -0.0508  0.5813
  317THF     C9 7117   1.345   1.002   4.107 -0.0042 -0.4645 -0.2784
  317THF    H10 7118   1.402   0.848   3.971 -2.2347  0.5768 -2.3498
  317THF    H11 7119   1.317   0.974   3.891 -0.9716  0.4711 -0.7010
  317THF    H12 7120   1.252   1.060   4.090 -0.7767 -2.3976  1.9508
  317THF    H13 7121   1.317   0.917   4.175  0.8022  0.4783 -0.2997
  318THF     O1 7122   3.360   2.980   0.459  0.3365  0.0141 -0.0298
  318THF     C2 7123   3.435   2.961   0.342 -0.1793 -0.1806  0.3918
  318THF     C3 7124   3.235   3.024   0.417 -0.4342  0.4987  0.2089
  318THF     H4 7125   3.483   2.864   0.354 -1.0324 -0.2095  3.0806
  318THF     H5 7126   3.515   3.029   0.340  1.0996 -0.6026  0.7097
  318THF     H6 7127   3.151   2.996   0.486 -2.6342 -0.1595  1.4559
  318THF     H7 7128   3.245   3.130   0.408  0.5772 -2.8892  0.7833
  318THF     C8 7129   3.208   2.980   0.274 -0.0925  0.4097 -0.2079
  318THF     C9 7130   3.350   2.965   0.218 -0.0423  0.2523  0.0472
  318THF    H10 7131   3.139   3.041   0.210 -2.9233 -1.8301 -1.9733
  318THF    H11 7132   3.169   2.882   0.287  1.0785 -0.9291 -0.4724
  318THF    H12 7133   3.368   2.874   0.164 -0.1321 -0.9129  1.0276
  318THF    H13 7134   3.367   3.044   0.158 -0.5314  1.7014  0.4021
  319THF     O1 7135   0.650   1.103   2.355 -0.2139  0.2393  0.0354
  319THF     C2 7136   0.582   1.190   2.446  0.4330 -0.7469 -0.3660
  319THF     C3 7137   0.556   1.061   2.257  0.1016  1.0410  0.5589
  319THF     H4 7138   0.654   1.263   2.475 -2.9572  0.1176  1.1047
  319THF     H5 7139   0.549   1.137   2.532  2.3168  0.8685  1.3189
  319THF     H6 7140   0.610   1.024   2.168 -1.4969  1.8520 -2.8865
  319THF     H7 7141   0.506   0.976   2.299  1.0890  0.2258  0.6401
  319THF     C8 7142   0.475   1.191   2.233 -0.1090  0.3012  0.2235
  319THF     C9 7143   0.468   1.256   2.370 -0.3479  0.5179 -1.1715
  319THF    H10 7144   0.384   1.173   2.188  0.6478 -1.3921  0.1498
  319THF    H11 7145   0.537   1.255   2.166 -1.1750 -0.4029 -0.9856
  319THF    H12 7146   0.485   1.365   2.372 -1.1282  2.1765  1.3759
  319THF    H13 7147   0.372   1.235   2.424 -0.4612  1.0352  0.9496
  320THF     O1 7148   1.622   0.364   5.255 -0.2030  0.4982 -0.3092
  320THF     C2 7149   1.674   0.235   5.284  0.0562  0.1691  0.1481
  320THF     C3 7150   1.509   0.384   5.331  0.6129  0.5415 -0.0522
  320THF     H4 7151   1.733   0.231   5.378  0.5059  1.5147 -1.3178
  320THF     H5 7152   1.744   0.206   5.215  1.0058 -1.8482  2.8673
  320THF     H6 7153   1.526   0.452   5.414 -1.7346  0.7620 -1.6248
  320THF     H7 7154   1.431   0.436   5.273  1.0598  1.1030  1.4411
  320THF     C8 7155   1.457   0.238   5.362  0.1739  0.2182  0.6034
  320THF     C9 7156   1.550   0.153   5.287 -0.1220 -1.2262 -0.4028
  320THF    H10 7157   1.362   0.221   5.317  0.6404  1.0192  0.9195
  320THF    H11 7158   1.452   0.220   5.469 -1.2743 -1.4865 -2.3237
  320THF    H12 7159   1.561   0.055   5.338  3.3574 -1.7495 -0.5797
  320THF    H13 7160   1.514   0.135   5.188  1.0809  0.4891 -1.2950
  321THF     O1 7161   4.626   1.695   2.185 -0.7389 -0.0171  0.0608
  321THF     C2 7162   4.554   1.815   2.152  0.0133 -0.0290 -0.3730
  321THF     C3 7163   4.621   1.679   2.327 -0.2698 -0.1179  0.3813
  321THF     H4 7164   4.523   1.847   2.052  1.5351  1.5969  1.8118
  321THF     H5 7165   4.626   1.893   2.185  1.7173 -0.2841  0.4979
  321THF     H6 7166   4.646   1.577   2.362 -1.3554 -0.4783 -1.3722
  321THF     H7 7167   4.699   1.728   2.376 -1.8001 -1.2296 -0.2188
  321THF     C8 7168   4.486   1.737   2.366 -0.2453  0.8142  0.1323
  321THF     C9 7169   4.432   1.810   2.242  0.4844  0.9088  0.5498
  321THF    H10 7170   4.490   1.812   2.443  0.8683  0.3570 -1.6017
  321THF    H11 7171   4.414   1.654   2.381  0.5342  0.7542  1.1370
  321THF    H12 7172   4.355   1.757   2.184  1.6347 -1.5192 -0.5917
  321THF    H13 7173   4.397   1.913   2.252  0.6414  0.5680  0.4116
  322THF     O1 7174   3.828   0.321   0.749 -0.2848  0.3474 -0.0039
  322THF     C2 7175   3.928   0.423   0.764  0.9968  0.1463  0.1016
  322THF     C3 7176   3.874   0.240   0.633 -0.1769  0.4451  0.3961
  322THF     H4 7177   4.014   0.379   0.810 -2.4076  1.6634  0.1030
  322THF     H5 7178   3.896   0.500   0.833  2.7307 -0.6592 -1.5670
  322THF     H6 7179   3.916   0.135   0.654 -1.9089 -1.9845  0.8124
  322THF     H7 7180   3.785   0.228   0.573  0.5057 -0.8238  3.9751
  322THF     C8 7181   3.978   0.328   0.557 -0.5270  0.2572 -0.3896
  322THF     C9 7182   3.958   0.461   0.621  1.0734  0.2088  0.2264
  322THF    H10 7183   3.966   0.311   0.453  0.6794 -2.8103  3.0247
  322THF    H11 7184   4.078   0.291   0.582 -1.2241 -0.3530 -1.2019
  322THF    H12 7185   4.040   0.526   0.603  1.7163 -1.5563  0.0355
  322THF    H13 7186   3.871   0.514   0.580  2.3031  1.5106 -2.3723
  323THF     O1 7187   0.893   0.319   4.288  0.3027 -0.0210  0.3639
  323THF     C2 7188   0.947   0.449   4.273 -0.0146 -0.0414  0.7639
  323THF     C3 7189   0.825   0.287   4.167  0.3355  1.0545 -0.6805
  323THF     H4 7190   1.035   0.433   4.216 -0.3301 -0.2420 -0.4265
  323THF     H5 7191   0.972   0.487   4.373 -0.3536 -1.0763 -0.0891
  323THF     H6 7192   0.882   0.241   4.089  1.7838 -0.6550 -0.2854
  323THF     H7 7193   0.751   0.215   4.181 -0.9334  2.3261  0.8095
  323THF     C8 7194   0.766   0.429   4.118 -0.3004  0.4627  0.0261
  323THF     C9 7195   0.832   0.526   4.214 -0.5491  0.0487 -0.4503
  323THF    H10 7196   0.659   0.440   4.126 -0.9287 -2.4004 -3.9336
  323THF    H11 7197   0.785   0.458   4.015  1.5161  0.2848 -0.0380
  323THF    H12 7198   0.863   0.616   4.167  1.2676 -1.7817 -1.8421
  323THF    H13 7199   0.766   0.541   4.297 -0.5343  0.1610 -0.1485
  324THF     O1 7200   2.546   0.118   5.188  0.3719  0.1998  0.3826
  324THF     C2 7201   2.671   0.097   5.126  0.8974  0.0119 -0.1853
  324THF     C3 7202   2.469   0.200   5.098 -0.0758 -0.1433 -0.8147
  324THF     H4 7203   2.661   0.031   5.043  0.2542  1.2455 -0.9982
  324THF     H5 7204   2.736   0.054   5.198  0.8024 -2.1196  0.4156
  324THF     H6 7205   2.402   0.137   5.037 -2.1044  1.3501 -0.9687
  324THF     H7 7206   2.405   0.260   5.160  1.3432 -1.6346 -0.5560
  324THF     C8 7207   2.564   0.282   5.022 -0.4521 -0.4612 -0.0609
  324THF     C9 7208   2.696   0.238   5.073  0.2999  0.4214  0.6399
  324THF    H10 7209   2.544   0.390   5.033 -2.3992 -0.2122 -2.5633
  324THF    H11 7210   2.552   0.259   4.918 -1.5701  0.6224  0.7030
  324THF    H12 7211   2.758   0.234   4.986  0.0706  1.2017  0.9063
  324THF    H13 7212   2.739   0.300   5.151  3.0397 -0.3230  0.8610
  325THF     O1 7213   2.015   0.714   5.449 -0.2233  0.4323 -0.1674
  325THF     C2 7214   1.903   0.645   5.396 -0.3459  0.1383  0.2480
  325THF     C3 7215   2.134   0.686   5.381 -0.4137 -0.4027 -0.0601
  325THF     H4 7216   1.828   0.712   5.351 -2.3258  1.9196  2.6474
  325THF     H5 7217   1.843   0.607   5.482  1.2985  1.5017  0.4725
  325THF     H6 7218   2.153   0.757   5.302  0.9572  1.1585  1.6318
  325THF     H7 7219   2.221   0.702   5.447 -0.6162 -0.0950  0.7822
  325THF     C8 7220   2.107   0.556   5.304  0.1176 -0.1094  0.1641
  325THF     C9 7221   1.959   0.539   5.300  0.8084  0.4541 -0.0344
  325THF    H10 7222   2.148   0.472   5.368 -1.8408  0.5959  0.4416
  325THF    H11 7223   2.171   0.562   5.216 -1.4146  1.9031 -1.0517
  325THF    H12 7224   1.930   0.535   5.193  2.0000 -0.7905 -3.1171
  325THF    H13 7225   1.927   0.441   5.324 -1.4458  0.5529  2.7026
  326THF     O1 7226   0.175   3.662   3.536  0.2598 -0.0256 -0.2272
  326THF     C2 7227   0.309   3.712   3.522  0.4083  0.5934 -0.8612
  326THF     C3 7228   0.151   3.559   3.436  0.5560 -0.4018  0.0439
  326THF     H4 7229   0.364   3.665   3.606 -1.1052  0.3858  1.0560
  326THF     H5 7230   0.319   3.817   3.535 -1.5024  0.5440 -2.0398
  326THF     H6 7231   0.118   3.464   3.473  0.5430 -0.7055 -0.0900
  326THF     H7 7232   0.078   3.594   3.367  1.1600 -3.0243  1.8490
  326THF     C8 7233   0.271   3.541   3.359  0.8566 -0.6335 -0.1138
  326THF     C9 7234   0.350   3.668   3.375  0.2568 -0.5976 -0.2833
  326THF    H10 7235   0.254   3.518   3.249  0.6818 -1.0244 -1.7110
  326THF    H11 7236   0.322   3.463   3.416  0.7135 -3.2944  0.7746
  326THF    H12 7237   0.462   3.641   3.361  0.6956 -0.5397  1.1785
  326THF    H13 7238   0.314   3.737   3.290 -1.2079  2.1614  0.5766
  327THF     O1 7239   4.756   0.736   0.515  0.5304 -0.1886 -0.0355
  327THF     C2 7240   4.808   0.711   0.383  0.3291 -0.0432  0.4631
  327THF     C3 7241   4.868   0.742   0.598 -0.1517  0.0508 -0.4729
  327THF     H4 7242   4.824   0.805   0.332 -3.1338  1.2347  0.0511
  327THF     H5 7243   4.729   0.659   0.330 -1.0159 -0.0514  2.3350
  327THF     H6 7244   4.914   0.835   0.572 -2.7662 -0.6854 -1.0396
  327THF     H7 7245   4.848   0.734   0.703 -0.0994 -0.5499 -0.8588
  327THF     C8 7246   4.960   0.633   0.546  0.4863  0.8267 -0.0808
  327THF     C9 7247   4.931   0.624   0.397 -0.4231 -0.1643 -0.3665
  327THF    H10 7248   4.932   0.540   0.580  0.0590  1.2606 -0.1099
  327THF    H11 7249   5.053   0.655   0.597 -2.0356 -0.2628  0.6267
  327THF    H12 7250   5.011   0.661   0.340 -0.8381 -0.9253  0.3517
  327THF    H13 7251   4.919   0.522   0.361  0.8198  0.8435 -0.5923
  328THF     O1 7252   3.713   2.035   3.948  0.0429 -0.0957 -0.6260
  328THF     C2 7253   3.686   2.094   3.819 -0.2857 -0.7097  0.2263
  328THF     C3 7254   3.735   1.895   3.923 -0.2768  0.2111 -0.1770
  328THF     H4 7255   3.709   2.205   3.805 -0.9764  1.4822  3.0344
  328THF     H5 7256   3.584   2.074   3.795 -0.7617  1.8846  1.8698
  328THF     H6 7257   3.788   1.848   4.005  0.3050 -0.5727 -0.3906
  328THF     H7 7258   3.636   1.839   3.914 -0.0585  0.8000  2.9208
  328THF     C8 7259   3.818   1.887   3.798 -0.0315 -0.1462  0.8145
  328THF     C9 7260   3.793   2.020   3.731  0.4539 -0.1155 -0.3307
  328THF    H10 7261   3.795   1.794   3.739 -0.8839 -1.7454 -1.2374
  328THF    H11 7262   3.926   1.858   3.819 -0.7728 -2.0600  0.2203
  328THF    H12 7263   3.883   2.079   3.722 -4.1021  0.5307  4.5232
  328THF    H13 7264   3.748   2.016   3.631  0.0651 -0.7061  0.0991
  329THF     O1 7265   4.522   5.067   4.403 -1.0977  0.1202 -0.0879
  329THF     C2 7266   4.585   4.942   4.366 -0.9824  0.4168 -0.0931
  329THF     C3 7267   4.533   5.081   4.542 -0.4012  0.4141 -0.5557
  329THF     H4 7268   4.588   4.930   4.258 -3.5911 -2.3010 -1.1297
  329THF     H5 7269   4.521   4.862   4.403 -0.2736  4.3297 -0.2287
  329THF     H6 7270   4.522   5.188   4.577 -2.0648  2.3096 -2.2767
  329THF     H7 7271   4.448   5.036   4.599  1.5053  2.9848  0.9666
  329THF     C8 7272   4.670   5.014   4.564 -0.6785  0.3014  0.6297
  329THF     C9 7273   4.714   4.956   4.431  0.4734 -0.3919  0.1784
  329THF    H10 7274   4.668   4.942   4.652 -1.5323  0.2602 -0.9420
  329THF    H11 7275   4.737   5.087   4.600 -2.0359  0.5341  3.1484
  329THF    H12 7276   4.771   5.027   4.373  0.3052 -0.0842 -0.4452
  329THF    H13 7277   4.776   4.862   4.451  1.2351 -4.0570 -2.0710
  330THF     O1 7278   1.748   2.641   5.015  0.4740 -0.0233 -0.3093
  330THF     C2 7279   1.805   2.520   4.981  0.1546  0.1361  0.1344
  330THF     C3 7280   1.843   2.740   5.028 -0.3217  0.0581 -0.5549
  330THF     H4 7281   1.731   2.474   4.920  0.0457 -0.8777 -0.4732
  330THF     H5 7282   1.808   2.458   5.073  2.3797 -0.0009 -0.4952
  330THF     H6 7283   1.792   2.838   5.019  0.0212 -0.9826  2.0561
  330THF     H7 7284   1.908   2.737   5.117 -0.3071  0.7057  0.0373
  330THF     C8 7285   1.941   2.695   4.912  0.1650  0.6404 -0.1625
  330THF     C9 7286   1.939   2.541   4.926 -0.0200 -0.4745 -0.5845
  330THF    H10 7287   2.037   2.738   4.924 -0.6796  0.1073 -2.1540
  330THF    H11 7288   1.897   2.737   4.820 -0.1337  1.1229 -2.0382
  330THF    H12 7289   1.959   2.479   4.836 -0.2310 -0.1462  2.2365
  330THF    H13 7290   2.016   2.515   5.001  3.4371  1.9429 -1.1319
  331THF     O1 7291   1.523   0.097   0.889  0.3214 -0.0229  0.2242
  331THF     C2 7292   1.472  -0.033   0.867 -0.0237  0.1458 -0.1023
  331THF     C3 7293   1.506   0.162   0.769  0.4647  0.7940 -0.7121
  331THF     H4 7294   1.452  -0.086   0.961  0.1784 -0.0623  2.0844
  331THF     H5 7295   1.552  -0.089   0.829  0.6922 -1.4940 -0.6196
  331THF     H6 7296   1.505   0.264   0.786  0.1831 -1.8214 -1.6829
  331THF     H7 7297   1.584   0.141   0.697 -1.0219  0.4384  0.4942
  331THF     C8 7298   1.363   0.124   0.734 -0.5719 -0.5903 -0.3347
  331THF     C9 7299   1.351  -0.021   0.774 -0.0418 -0.0113 -0.6380
  331THF    H10 7300   1.350   0.136   0.629  3.2403 -0.8224  0.1714
  331THF    H11 7301   1.295   0.189   0.792 -1.2343  0.2929  0.1596
  331THF    H12 7302   1.256  -0.043   0.823 -0.2426 -0.3132 -0.6138
  331THF    H13 7303   1.359  -0.091   0.691 -0.2470 -3.6936 -1.5870
  332THF     O1 7304   5.200   2.258   2.171 -0.0647 -0.3005  0.4429
  332THF     C2 7305   5.271   2.135   2.162  0.2193  0.2618 -0.3262
  332THF     C3 7306   5.286   2.360   2.221  0.9491  0.4205  0.0962
  332THF     H4 7307   5.226   2.074   2.088  1.1446  3.0682  1.8778
  332THF     H5 7308   5.265   2.079   2.259  1.4818  1.9641  0.9188
  332THF     H6 7309   5.313   2.432   2.142  0.3094 -1.1914  0.0780
  332THF     H7 7310   5.240   2.415   2.305 -1.8571 -1.7529  0.0524
  332THF     C8 7311   5.409   2.287   2.258 -0.6373  1.0330  0.5955
  332THF     C9 7312   5.414   2.169   2.159 -0.2264  0.6087  0.1107
  332THF    H10 7313   5.414   2.248   2.361 -2.1549 -1.2843  0.2139
  332THF    H11 7314   5.494   2.353   2.256  0.8737  0.2612  1.2599
  332THF    H12 7315   5.446   2.202   2.059 -1.4046 -0.4108 -0.3462
  332THF    H13 7316   5.492   2.094   2.189 -0.9022  0.0261  1.0594
  333THF     O1 7317   3.359   1.125   3.329  0.4259 -0.3805  0.4247
  333THF     C2 7318   3.479   1.057   3.348 -0.2822 -0.5723 -0.1589
  333THF     C3 7319   3.378   1.253   3.271 -0.8445  0.0564  0.3574
  333THF     H4 7320   3.460   0.950   3.330  3.5218  0.9998  0.7589
  333THF     H5 7321   3.519   1.074   3.446 -2.6105  0.3479 -0.9326
  333THF     H6 7322   3.285   1.299   3.228  0.0779 -1.9669  0.8282
  333THF     H7 7323   3.406   1.319   3.348  1.6833 -0.3883 -3.8316
  333THF     C8 7324   3.488   1.234   3.169  0.8416 -0.3596  0.0574
  333THF     C9 7325   3.573   1.131   3.248  0.3485  0.7562 -0.0140
  333THF    H10 7326   3.536   1.333   3.166 -1.2857 -0.4857  0.0488
  333THF    H11 7327   3.438   1.198   3.081  0.0341  1.3218  1.6924
  333THF    H12 7328   3.616   1.059   3.175  0.3534 -1.8831  2.6177
  333THF    H13 7329   3.650   1.178   3.302  0.1641 -0.7347 -0.3508
  334THF     O1 7330   1.482   3.057   2.676 -0.1551  0.0160 -0.2766
  334THF     C2 7331   1.553   3.063   2.801 -0.5466  0.4759  0.3972
  334THF     C3 7332   1.343   3.039   2.710 -0.4229 -0.0660  0.2996
  334THF     H4 7333   1.560   3.169   2.835 -2.3686  2.4689  3.0842
  334THF     H5 7334   1.651   3.031   2.773 -0.9003  1.7877 -0.9749
  334THF     H6 7335   1.298   3.133   2.716  0.0631 -1.5164 -0.0893
  334THF     H7 7336   1.292   2.972   2.640  1.4762 -2.2270  1.0869
  334THF     C8 7337   1.344   2.976   2.853 -0.4711 -1.0532  0.1884
  334THF     C9 7338   1.489   2.969   2.899 -0.7863  0.4362  0.2245
  334THF    H10 7339   1.304   2.876   2.857 -2.3383 -0.5122 -0.3095
  334THF    H11 7340   1.285   3.044   2.921  1.8360 -2.4860 -0.6259
  334THF    H12 7341   1.481   3.007   3.003 -1.8937  1.5929 -0.7363
  334THF    H13 7342   1.528   2.870   2.902 -1.3551  0.6562 -0.3809
  335THF     O1 7343   0.598   5.027   0.731  0.5683  0.7719  0.3736
  335THF     C2 7344   0.561   5.143   0.669  0.2670  0.7403  0.2377
  335THF     C3 7345   0.664   4.952   0.629  0.2418  0.9955 -0.6660
  335THF     H4 7346   0.646   5.208   0.680  0.5656  2.3376 -2.4934
  335THF     H5 7347   0.478   5.183   0.728  0.2883  1.8248  2.8218
  335THF     H6 7348   0.765   4.995   0.620  0.3969  1.0344 -0.6679
  335THF     H7 7349   0.700   4.850   0.644  0.4939 -0.3553  1.9801
  335THF     C8 7350   0.572   4.962   0.509  0.1794 -0.0101  0.2468
  335THF     C9 7351   0.531   5.104   0.523 -0.0227 -0.3849 -0.1917
  335THF    H10 7352   0.491   4.891   0.515 -1.4818  0.7160  2.7339
  335THF    H11 7353   0.632   4.956   0.422 -1.8276  1.1899 -1.2690
  335THF    H12 7354   0.581   5.184   0.461  0.1112  0.0779 -2.1362
  335THF    H13 7355   0.423   5.093   0.511  1.2338  2.7700  0.4490
  336THF     O1 7356   1.445   2.437   1.756  0.4252  0.0263 -0.0278
  336THF     C2 7357   1.525   2.372   1.662  0.5874 -0.4562  0.5116
  336THF     C3 7358   1.448   2.575   1.723  0.1889  0.6630 -0.1345
  336THF     H4 7359   1.506   2.263   1.656 -0.0224 -0.6095  0.1964
  336THF     H5 7360   1.623   2.390   1.680 -0.8495  0.0764 -1.7372
  336THF     H6 7361   1.375   2.639   1.783  0.6123  0.0867  1.1020
  336THF     H7 7362   1.554   2.625   1.737 -1.7579  0.7434 -1.8458
  336THF     C8 7363   1.404   2.565   1.582 -0.0884  0.4961  0.6737
  336THF     C9 7364   1.484   2.442   1.530 -0.2546 -0.0781 -0.2702
  336THF    H10 7365   1.424   2.655   1.523  0.1178 -0.1733 -1.3027
  336THF    H11 7366   1.296   2.541   1.581 -1.0048 -2.5807  0.6484
  336THF    H12 7367   1.432   2.387   1.456  0.8549  0.1946 -0.5101
  336THF    H13 7368   1.564   2.487   1.469  0.0823  1.7904  0.3903
  337THF     O1 7369   3.214   0.564   0.910  0.0790 -0.4666 -0.0863
  337THF     C2 7370   3.330   0.593   0.832 -0.3165  0.0759  0.8400
  337THF     C3 7371   3.226   0.433   0.961 -0.5620  0.4610 -0.2828
  337THF     H4 7372   3.354   0.702   0.813  0.4164 -1.2541  0.5943
  337THF     H5 7373   3.307   0.549   0.727 -2.6364  0.3561 -1.4063
  337THF     H6 7374   3.213   0.432   1.065  1.3039 -1.6719 -0.2481
  337THF     H7 7375   3.143   0.369   0.922  2.0691 -1.1337  0.3626
  337THF     C8 7376   3.357   0.374   0.918  0.1138  0.4699  0.4443
  337THF     C9 7377   3.443   0.493   0.881 -0.2818  0.2679  0.1589
  337THF    H10 7378   3.350   0.312   0.829 -0.5358  1.8801  0.6120
  337THF    H11 7379   3.413   0.321   0.996  3.0497 -2.2252  0.7465
  337THF    H12 7380   3.494   0.531   0.965  3.6552  0.4445 -0.2032
  337THF    H13 7381   3.517   0.465   0.805  0.7800 -0.4233 -1.1636
  338THF     O1 7382   4.633   3.798   4.355  0.1293  0.5242 -0.3666
  338THF     C2 7383   4.702   3.916   4.358 -0.9564 -0.3942 -0.9939
  338THF     C3 7384   4.496   3.841   4.342 -0.0505 -0.2786 -0.3404
  338THF     H4 7385   4.705   3.936   4.247  0.1614 -2.2763  0.5279
  338THF     H5 7386   4.812   3.906   4.389  0.7523 -1.6861  0.4036
  338THF     H6 7387   4.478   3.888   4.244  0.0559 -0.2741 -1.4763
  338THF     H7 7388   4.431   3.755   4.354  1.6454  3.9134  0.8219
  338THF     C8 7389   4.484   3.951   4.454  0.2005  0.8446 -0.6271
  338THF     C9 7390   4.627   4.012   4.443  0.6945 -0.3337 -0.6524
  338THF    H10 7391   4.467   3.897   4.551 -0.3793 -1.2445  0.3680
  338THF    H11 7392   4.401   4.021   4.433  1.2563  2.3356  0.4404
  338THF    H12 7393   4.628   4.110   4.389  1.5468  2.3965 -1.1685
  338THF    H13 7394   4.667   4.027   4.540 -3.2081  0.1832  1.2612
  339THF     O1 7395   3.483   1.756   3.723 -0.1824  0.2930  0.0971
  339THF     C2 7396   3.363   1.832   3.742 -0.1122 -0.7322 -0.4151
  339THF     C3 7397   3.431   1.625   3.695 -0.7125  0.2283 -0.1566
  339THF     H4 7398   3.390   1.937   3.735 -1.0446 -0.1570 -1.8814
  339THF     H5 7399   3.302   1.808   3.828 -1.5976  1.9588 -1.3147
  339THF     H6 7400   3.512   1.567   3.651  1.9000 -0.6125 -0.4432
  339THF     H7 7401   3.403   1.571   3.782 -3.1802 -1.5643 -1.7179
  339THF     C8 7402   3.310   1.637   3.603 -0.7719  0.1168 -0.3776
  339THF     C9 7403   3.270   1.789   3.626 -0.7693  0.3317  0.2608
  339THF    H10 7404   3.222   1.571   3.637 -0.7691 -2.0948  1.6836
  339THF    H11 7405   3.334   1.613   3.504 -1.3695  1.7473  0.1402
  339THF    H12 7406   3.302   1.862   3.555  0.4942  1.9996  0.5170
  339THF    H13 7407   3.163   1.798   3.637  0.8983 -1.5228 -0.6368
  340THF     O1 7408   4.336   4.392   4.826  0.0943 -0.2785  0.7277
  340THF     C2 7409   4.269   4.277   4.783  0.2236  0.9081  0.5058
  340THF     C3 7410   4.475   4.352   4.842 -0.5872 -0.6895 -0.9665
  340THF     H4 7411   4.165   4.306   4.752  0.6690  0.0519 -3.9528
  340THF     H5 7412   4.258   4.193   4.850 -0.8478  1.1201  0.5275
  340THF     H6 7413   4.530   4.444   4.832  1.9524 -3.8323 -1.1246
  340THF     H7 7414   4.498   4.300   4.939  1.4988  0.5790  0.1052
  340THF     C8 7415   4.502   4.252   4.731 -0.6615  0.1002  0.7442
  340THF     C9 7416   4.361   4.232   4.674 -0.2795 -0.2114  0.3227
  340THF    H10 7417   4.533   4.160   4.782  1.9338 -1.6724  0.3017
  340THF    H11 7418   4.579   4.297   4.661  0.7933 -0.8339 -2.7628
  340THF    H12 7419   4.343   4.312   4.598 -0.9034 -0.5471  2.6740
  340THF    H13 7420   4.333   4.132   4.639  0.0188  2.6700 -1.2796
  341THF     O1 7421   2.254   3.785   1.847  0.2907  0.2985 -0.2012
  341THF     C2 7422   2.276   3.927   1.839 -0.1175  0.1042 -0.5719
  341THF     C3 7423   2.204   3.750   1.973  0.1134 -0.4220  0.5552
  341THF     H4 7424   2.286   3.964   1.737 -1.9046  0.0692  0.4518
  341THF     H5 7425   2.374   3.957   1.890  0.9833 -0.2664 -2.8336
  341THF     H6 7426   2.152   3.653   1.980  0.6979 -0.2879  1.3545
  341THF     H7 7427   2.285   3.756   2.049 -0.6269  0.7607  0.8984
  341THF     C8 7428   2.108   3.870   1.999 -0.4787  0.6596 -0.1049
  341THF     C9 7429   2.166   3.989   1.928 -0.2166  0.6314 -0.0381
  341THF    H10 7430   2.089   3.880   2.107  1.5720 -4.5213 -0.7380
  341THF    H11 7431   2.011   3.853   1.951  0.4109 -1.3324 -0.6387
  341THF    H12 7432   2.097   4.057   1.874  0.7516  1.7326 -1.2265
  341THF    H13 7433   2.209   4.057   2.002 -0.3724 -0.4019  0.7648
  342THF     O1 7434   2.697   1.967   5.030 -0.0681  0.0719 -0.5078
  342THF     C2 7435   2.641   2.034   5.146 -0.1745  0.3580 -0.4266
  342THF     C3 7436   2.684   1.831   5.051 -0.5825 -0.4189  0.9373
  342THF     H4 7437   2.538   2.048   5.136  0.1084 -1.3957 -0.8504
  342THF     H5 7438   2.686   2.132   5.167  0.5438 -1.0365 -1.0674
  342THF     H6 7439   2.575   1.810   5.035 -2.3436 -3.3974  1.2725
  342THF     H7 7440   2.755   1.781   4.978  0.4943 -2.4928 -1.0660
  342THF     C8 7441   2.718   1.814   5.194  0.1010  0.1617 -0.0524
  342THF     C9 7442   2.656   1.936   5.262 -0.9747  0.3060  0.4853
  342THF    H10 7443   2.827   1.818   5.204 -0.5955  0.4132  0.3883
  342THF    H11 7444   2.687   1.718   5.226 -1.0791 -1.6592 -1.6819
  342THF    H12 7445   2.565   1.902   5.309 -0.4674  0.9526  0.6699
  342THF    H13 7446   2.725   1.982   5.335  2.1906 -2.3914  0.0312
  343THF     O1 7447   3.970   4.164   2.696  0.3661  0.8889 -0.1381
  343THF     C2 7448   4.105   4.181   2.737  0.3477 -0.4238 -0.5905
  343THF     C3 7449   3.884   4.156   2.810 -0.0100 -0.4707 -0.5896
  343THF     H4 7450   4.124   4.285   2.746  2.7801  0.4558 -1.7604
  343THF     H5 7451   4.175   4.133   2.670 -1.4390  0.0784 -1.1603
  343THF     H6 7452   3.831   4.246   2.805 -2.5238 -1.3979  0.7571
  343THF     H7 7453   3.812   4.082   2.800  1.1703 -2.0529 -0.5378
  343THF     C8 7454   3.976   4.135   2.934  0.0354  0.8476  0.4663
  343THF     C9 7455   4.113   4.115   2.874  0.4292  0.2984 -0.4341
  343THF    H10 7456   3.938   4.053   2.997  1.0682 -0.7249  2.8154
  343THF    H11 7457   3.968   4.225   2.986  2.5374 -0.6902  0.7304
  343THF    H12 7458   4.188   4.161   2.933 -0.6562 -1.9271 -0.4635
  343THF    H13 7459   4.139   4.011   2.851 -1.8911 -0.0836 -0.1418
  344THF     O1 7460   3.565   2.417   0.064 -0.0567 -0.0640 -0.5693
  344THF     C2 7461   3.532   2.553   0.074  0.7661 -0.0467  0.1543
  344THF     C3 7462   3.697   2.381   0.102 -0.4130 -0.3666 -0.1564
  344THF     H4 7463   3.445   2.572   0.128  2.0336  1.7106 -0.1319
  344THF     H5 7464   3.524   2.595  -0.028 -1.6408 -1.1629  2.3589
  344THF     H6 7465   3.705   2.344   0.197 -1.1451  2.5305  0.5633
  344THF     H7 7466   3.756   2.312   0.024  0.9628  0.0047 -1.0085
  344THF     C8 7467   3.766   2.516   0.095  0.0274 -0.1673  0.3011
  344THF     C9 7468   3.655   2.605   0.146  0.2043 -0.9237 -0.2771
  344THF    H10 7469   3.807   2.542  -0.003 -0.4808  1.1611  0.4222
  344THF    H11 7470   3.858   2.524   0.157 -1.2079  3.8861 -0.1465
  344THF    H12 7471   3.642   2.593   0.257 -0.0493  1.4076  0.9884
  344THF    H13 7472   3.670   2.717   0.129  2.2825  1.8483 -2.4223
  345THF     O1 7473   4.443   0.656   4.060 -0.0291 -0.3196  0.1846
  345THF     C2 7474   4.308   0.675   4.031  0.6827  0.5322 -0.1136
  345THF     C3 7475   4.467   0.732   4.182 -0.1659  0.5892 -0.1013
  345THF     H4 7476   4.250   0.603   4.090 -1.0353  1.0135  0.8186
  345THF     H5 7477   4.287   0.668   3.926  1.1517 -0.1439 -0.0616
  345THF     H6 7478   4.424   0.682   4.267  0.6434 -2.5934  0.9800
  345THF     H7 7479   4.574   0.749   4.190 -0.2273 -1.3413 -1.6657
  345THF     C8 7480   4.391   0.858   4.157  0.0108 -0.6699 -0.9546
  345THF     C9 7481   4.277   0.821   4.079 -0.2947  1.3150 -0.1586
  345THF    H10 7482   4.449   0.928   4.098  1.2719  4.6439  1.3576
  345THF    H11 7483   4.373   0.921   4.250 -1.2250 -0.4721 -0.9463
  345THF    H12 7484   4.192   0.829   4.146  0.1799 -2.8656  0.2500
  345THF    H13 7485   4.269   0.891   3.997 -0.2968 -1.3665 -0.9149
  346THF     O1 7486   4.577   4.315   2.878 -0.2259 -0.1998  0.5684
  346THF     C2 7487   4.494   4.415   2.833  0.8355  0.2681  0.1591
  346THF     C3 7488   4.705   4.348   2.827 -0.0021  0.4305 -0.2355
  346THF     H4 7489   4.402   4.413   2.895 -1.6508 -0.8750  0.0611
  346THF     H5 7490   4.462   4.383   2.733 -2.7378  2.1982  0.3860
  346THF     H6 7491   4.781   4.294   2.890 -2.0776 -1.8943 -1.9561
  346THF     H7 7492   4.716   4.311   2.725 -0.9955 -0.6522 -0.6331
  346THF     C8 7493   4.716   4.502   2.816 -0.3064  1.1502 -0.2422
  346THF     C9 7494   4.575   4.540   2.808  0.0412 -0.1233 -0.1175
  346THF    H10 7495   4.762   4.536   2.725  0.7780 -2.2304  2.0536
  346THF    H11 7496   4.761   4.543   2.899  0.0161 -0.5269 -1.2649
  346THF    H12 7497   4.556   4.615   2.886  1.5440  0.8495 -0.8353
  346THF    H13 7498   4.546   4.599   2.718  3.0463 -1.7267 -4.0113
  347THF     O1 7499   5.108   3.260   3.309 -0.1810 -0.0414  0.7253
  347THF     C2 7500   5.117   3.316   3.442 -0.0180  0.5968 -0.4576
  347THF     C3 7501   5.135   3.118   3.316  0.3588 -0.3470 -0.0008
  347THF     H4 7502   5.044   3.394   3.450 -0.0512 -1.9512 -1.1154
  347THF     H5 7503   5.216   3.357   3.449 -1.1380 -1.6654  2.2997
  347THF     H6 7504   5.087   3.044   3.245 -0.4347 -1.1541  1.2931
  347THF     H7 7505   5.240   3.110   3.319  0.3567 -1.9913 -0.4075
  347THF     C8 7506   5.070   3.086   3.454  0.0913 -0.7613  0.9885
  347THF     C9 7507   5.085   3.207   3.543  0.0694  0.5792 -0.7679
  347THF    H10 7508   5.109   2.991   3.487 -1.2807 -0.6608  1.6482
  347THF    H11 7509   4.965   3.073   3.429  0.6654  0.3038  0.9843
  347THF    H12 7510   4.995   3.233   3.606  2.1564  0.9820 -1.7798
  347THF    H13 7511   5.166   3.201   3.613  2.7624  2.3042 -0.6848
  348THF     O1 7512   0.994   2.417   4.503  0.7181 -0.6716 -0.1558
  348THF     C2 7513   0.906   2.341   4.571  0.4142  0.5874 -0.3179
  348THF     C3 7514   1.117   2.347   4.501  1.0746  0.0642 -0.1697
  348THF     H4 7515   0.883   2.254   4.510  1.5158  0.0492 -1.9631
  348THF     H5 7516   0.811   2.391   4.598 -2.5099 -0.8071 -3.2623
  348THF     H6 7517   1.117   2.249   4.456 -0.4239  0.2172  0.6441
  348THF     H7 7518   1.195   2.403   4.454  1.3942  0.9307  1.5900
  348THF     C8 7519   1.121   2.307   4.648 -0.2965 -0.1542  0.2686
  348THF     C9 7520   0.978   2.303   4.696  0.9191 -0.2689  0.1812
  348THF    H10 7521   1.177   2.393   4.696 -0.3270 -0.0624  0.6746
  348THF    H11 7522   1.153   2.209   4.663 -2.5556 -1.5630 -0.8929
  348THF    H12 7523   0.944   2.214   4.743  1.4629  1.2584  0.4361
  348THF    H13 7524   0.964   2.380   4.771 -1.1024 -2.0575 -2.5680
  349THF     O1 7525   4.825   2.053   2.448  0.0464 -0.3028 -0.1896
  349THF     C2 7526   4.947   2.113   2.410  0.2653 -0.2270  0.1254
  349THF     C3 7527   4.723   2.158   2.465 -0.5406 -0.1767 -0.3988
  349THF     H4 7528   4.935   2.129   2.298  0.8216 -0.1340 -4.3820
  349THF     H5 7529   5.032   2.048   2.431  1.8199  2.2678  0.7365
  349THF     H6 7530   4.678   2.176   2.365 -1.2921 -1.1267 -2.1122
  349THF     H7 7531   4.646   2.123   2.538  1.0652  0.0602  0.3100
  349THF     C8 7532   4.803   2.278   2.514  0.0536  0.6782 -0.4066
  349THF     C9 7533   4.947   2.236   2.505 -0.6367  0.1723 -0.2839
  349THF    H10 7534   4.785   2.296   2.624 -0.6686 -0.8832 -1.3500
  349THF    H11 7535   4.774   2.360   2.445  1.7795  1.8639  2.3070
  349THF    H12 7536   5.012   2.306   2.458  0.5756  0.1168  1.0921
  349THF    H13 7537   4.990   2.222   2.609 -0.1123  1.9267  0.2066
  350THF     O1 7538   3.714   4.835   4.467  0.3168 -0.0933 -0.1356
  350THF     C2 7539   3.642   4.888   4.580 -0.3701 -0.0912  0.3512
  350THF     C3 7540   3.676   4.696   4.446  0.0990  0.3579  0.1619
  350THF     H4 7541   3.549   4.928   4.546  2.9410 -1.3730 -2.1563
  350THF     H5 7542   3.700   4.966   4.631  1.7081  0.4357  0.9011
  350THF     H6 7543   3.617   4.684   4.352 -0.4078 -0.4760 -1.5444
  350THF     H7 7544   3.762   4.639   4.434 -2.2525  0.9324  1.5429
  350THF     C8 7545   3.589   4.665   4.565  0.5840  0.0665 -0.7509
  350THF     C9 7546   3.617   4.771   4.664  0.1244 -0.4256  0.1276
  350THF    H10 7547   3.619   4.560   4.587 -2.6341  1.2893 -0.0587
  350THF    H11 7548   3.486   4.663   4.529 -1.1861 -0.4439  1.4404
  350THF    H12 7549   3.537   4.777   4.741  0.3784 -1.3537  0.5722
  350THF    H13 7550   3.712   4.744   4.714  1.0598  1.0416  2.5035
  351THF     O1 7551   0.487   3.998   5.418 -0.1101  0.4207  0.0911
  351THF     C2 7552   0.484   3.855   5.396  0.1697 -0.4260 -0.6292
  351THF     C3 7553   0.584   4.022   5.514  0.0067 -0.2429  0.1118
  351THF     H4 7554   0.431   3.823   5.305 -0.9621  3.1164 -2.6335
  351THF     H5 7555   0.448   3.811   5.493  2.8182 -0.7840 -0.9303
  351THF     H6 7556   0.605   4.129   5.503 -1.3678  1.3863  0.0103
  351THF     H7 7557   0.551   4.002   5.609 -1.0526  2.6037 -3.0572
  351THF     C8 7558   0.692   3.936   5.463 -0.5184  0.2225  0.0842
  351THF     C9 7559   0.634   3.828   5.385  0.3856 -0.1822 -0.3376
  351THF    H10 7560   0.739   3.881   5.551  0.3440 -1.8869  1.1130
  351THF    H11 7561   0.770   3.992   5.406 -1.9221  3.3665 -1.1026
  351THF    H12 7562   0.654   3.835   5.279  0.0659  1.3902 -0.5723
  351THF    H13 7563   0.673   3.728   5.421 -2.8420 -1.1482  0.9048
  352THF     O1 7564   0.066   1.020   3.246  0.2163 -0.0143  0.1940
  352THF     C2 7565   0.143   0.913   3.182 -0.0199 -0.4199  0.3021
  352THF     C3 7566   0.038   1.111   3.143  0.2489 -0.5739  0.5635
  352THF     H4 7567   0.128   0.820   3.238 -0.8294  0.5105 -0.8183
  352THF     H5 7568   0.244   0.921   3.201 -0.0175  0.5714 -1.0977
  352THF     H6 7569  -0.051   1.174   3.157 -0.4508  3.7610 -1.7263
  352THF     H7 7570   0.114   1.183   3.144 -0.9476  1.7751 -0.1616
  352THF     C8 7571   0.026   1.025   3.015  0.2224 -0.0579 -0.6694
  352THF     C9 7572   0.110   0.905   3.033 -0.1421  0.1504 -0.0564
  352THF    H10 7573   0.053   1.081   2.923 -0.0649 -2.6299 -1.1076
  352THF    H11 7574  -0.070   0.980   2.991  0.2941 -1.1377  0.1073
  352THF    H12 7575   0.062   0.811   3.004  0.6123  0.0142  1.4204
  352THF    H13 7576   0.196   0.915   2.967 -4.2372  0.8700 -0.9470
  353THF     O1 7577   4.637   1.045   3.432 -0.1993 -0.4779  0.2411
  353THF     C2 7578   4.752   1.067   3.351 -0.6914 -0.3574 -0.3919
  353THF     C3 7579   4.672   0.960   3.533  0.1890 -0.5342  0.1885
  353THF     H4 7580   4.740   1.153   3.281 -1.2467 -2.0382 -0.2438
  353THF     H5 7581   4.765   0.984   3.279 -0.9946 -3.8745  2.5641
  353THF     H6 7582   4.632   0.997   3.630  0.9998 -0.6923  0.3265
  353THF     H7 7583   4.614   0.871   3.505 -0.5770 -2.0460 -1.5448
  353THF     C8 7584   4.829   0.940   3.533  0.0141  0.6078  0.5382
  353THF     C9 7585   4.873   1.056   3.441 -0.2990  0.0827  0.2709
  353THF    H10 7586   4.844   0.840   3.491  0.4655 -1.4295  1.5543
  353THF    H11 7587   4.876   0.949   3.628  2.0926  0.1082  1.4855
  353THF    H12 7588   4.894   1.145   3.506  0.8356  0.2450  0.3288
  353THF    H13 7589   4.969   1.045   3.389  0.1984  0.7600 -3.6208
  354THF     O1 7590   1.913   2.482   4.336  0.4385  0.5342  0.5628
  354THF     C2 7591   1.874   2.350   4.377 -0.6789  0.7618 -0.3793
  354THF     C3 7592   1.794   2.538   4.273  0.0662 -0.7790 -0.2890
  354THF     H4 7593   1.935   2.314   4.462 -0.4441 -2.7479  1.6933
  354THF     H5 7594   1.912   2.282   4.296  3.2536  2.6154  0.3842
  354THF     H6 7595   1.773   2.631   4.332 -1.2488  3.3780 -0.7485
  354THF     H7 7596   1.826   2.575   4.174 -0.0627  0.6879 -1.3163
  354THF     C8 7597   1.685   2.428   4.268 -0.3470  0.5279  0.1591
  354THF     C9 7598   1.722   2.338   4.394  0.3369 -0.3006  0.0821
  354THF    H10 7599   1.691   2.372   4.170 -3.2927 -0.8022 -3.4167
  354THF    H11 7600   1.588   2.478   4.261  0.7425  0.8799 -0.5364
  354THF    H12 7601   1.695   2.379   4.488 -2.6894  0.2714 -2.2331
  354THF    H13 7602   1.684   2.239   4.391  0.5722 -0.2926  0.9553
  355THF     O1 7603   1.426   4.540   0.339 -0.8948 -0.1533  0.3315
  355THF     C2 7604   1.385   4.482   0.218  0.2474  0.7251  0.3760
  355THF     C3 7605   1.362   4.665   0.363  0.2331 -0.6749 -0.0395
  355THF     H4 7606   1.328   4.387   0.242  0.9610 -0.5320 -1.2686
  355THF     H5 7607   1.474   4.448   0.168 -1.0989 -0.9612 -2.9714
  355THF     H6 7608   1.263   4.648   0.399  2.0661  0.7334  0.6611
  355THF     H7 7609   1.422   4.726   0.440 -2.2723 -0.0443  1.6685
  355THF     C8 7610   1.350   4.718   0.219  1.0948  0.5307  0.0480
  355THF     C9 7611   1.318   4.590   0.140 -0.1452  0.0526 -0.2544
  355THF    H10 7612   1.431   4.764   0.178 -0.1237 -1.3983 -1.4928
  355THF    H11 7613   1.278   4.798   0.202  1.2329  1.3884  0.3944
  355THF    H12 7614   1.211   4.561   0.154 -0.8722 -0.6329 -0.5087
  355THF    H13 7615   1.334   4.602   0.031 -1.6181  0.1659 -0.7972
  356THF     O1 7616   1.409   1.634   3.471 -0.2742 -0.1008  0.4616
  356THF     C2 7617   1.286   1.668   3.414  0.7600 -0.8971  0.5688
  356THF     C3 7618   1.474   1.548   3.380 -1.0542  0.0345 -0.0398
  356THF     H4 7619   1.240   1.749   3.469 -2.3359 -0.9691  1.6118
  356THF     H5 7620   1.220   1.586   3.423  4.5567 -0.4055  1.2709
  356THF     H6 7621   1.587   1.552   3.394  0.6751  0.1703  0.5397
  356THF     H7 7622   1.443   1.447   3.415 -1.4458  0.5704 -0.3613
  356THF     C8 7623   1.433   1.590   3.235  0.1165 -0.3251 -0.1468
  356THF     C9 7624   1.318   1.696   3.269 -0.4337 -0.3542 -0.2669
  356THF    H10 7625   1.396   1.514   3.175 -1.9996  0.5786  2.1439
  356THF    H11 7626   1.520   1.636   3.179  0.7899  0.7610 -1.3749
  356THF    H12 7627   1.367   1.794   3.267  2.9834  3.0408  0.1964
  356THF    H13 7628   1.225   1.696   3.203  1.2392  1.7204 -0.0846
  357THF     O1 7629   2.495   3.445   1.680 -0.1944  0.6962  0.1267
  357THF     C2 7630   2.629   3.431   1.723 -0.0640  0.1205 -0.0094
  357THF     C3 7631   2.458   3.568   1.736 -0.1438  0.7401  0.8816
  357THF     H4 7632   2.692   3.502   1.677 -0.7714  0.2062  0.2312
  357THF     H5 7633   2.674   3.330   1.718  1.8792  1.3051  1.0868
  357THF     H6 7634   2.500   3.651   1.682 -0.3965 -1.5958 -0.5501
  357THF     H7 7635   2.352   3.576   1.735 -1.5740 -2.9468 -0.7896
  357THF     C8 7636   2.513   3.565   1.880  0.6264  0.5949  0.2666
  357THF     C9 7637   2.633   3.468   1.868  0.5770  0.0966 -0.0542
  357THF    H10 7638   2.443   3.516   1.944 -1.5675 -0.7507  1.7612
  357THF    H11 7639   2.520   3.666   1.914 -1.1041  0.1047  0.5052
  357THF    H12 7640   2.728   3.522   1.891 -1.4523 -0.1355 -0.8340
  357THF    H13 7641   2.619   3.380   1.934 -1.8014 -1.6624  0.5197
  358THF     O1 7642   1.120   5.248   0.887  0.3010 -0.2220  0.2458
  358THF     C2 7643   1.200   5.156   0.947  0.1347  0.2985 -0.4082
  358THF     C3 7644   1.020   5.290   0.984 -0.5030 -0.1339  0.4679
  358THF     H4 7645   1.298   5.138   0.896 -1.2180  0.4028 -1.1253
  358THF     H5 7646   1.154   5.059   0.956  0.1204 -0.5816 -1.8731
  358THF     H6 7647   0.991   5.394   0.973 -0.9694 -0.3922  1.8997
  358THF     H7 7648   0.921   5.238   0.982  0.3115 -2.4837  1.3943
  358THF     C8 7649   1.080   5.279   1.127  0.5266 -0.9497  0.4060
  358THF     C9 7650   1.216   5.221   1.089  0.2447  0.9945 -0.2793
  358THF    H10 7651   1.017   5.216   1.183 -2.0032 -0.4799 -0.7710
  358THF    H11 7652   1.090   5.378   1.185 -0.5523  0.5963 -0.4690
  358THF    H12 7653   1.286   5.303   1.089 -0.4341  1.4860  0.6023
  358THF    H13 7654   1.241   5.151   1.172 -1.1409 -0.7574 -0.6660
  359THF     O1 7655   1.231   0.134   5.029  0.3750  0.0456 -0.5923
  359THF     C2 7656   1.136   0.249   5.043  0.1551 -0.1086  0.1801
  359THF     C3 7657   1.166   0.029   4.960  0.3154 -0.0574 -0.4248
  359THF     H4 7658   1.191   0.340   5.056 -0.9176  1.4734 -1.4533
  359THF     H5 7659   1.067   0.228   5.125  0.2649 -3.0133 -1.2644
  359THF     H6 7660   1.227  -0.048   4.919 -1.3998 -1.0563 -2.7123
  359THF     H7 7661   1.084  -0.012   5.007  0.5097  0.4483 -0.1951
  359THF     C8 7662   1.099   0.110   4.845  0.4579 -0.8986  0.1634
  359THF     C9 7663   1.066   0.247   4.903 -0.2638 -0.9189 -0.4131
  359THF    H10 7664   1.007   0.065   4.798  1.2050 -0.8359 -3.0788
  359THF    H11 7665   1.167   0.129   4.762 -1.2801 -0.4287 -2.1988
  359THF    H12 7666   1.092   0.333   4.840  1.0517 -1.3687  0.5851
  359THF    H13 7667   0.957   0.248   4.919 -0.4320  0.7845  0.9717
  360THF     O1 7668   1.537   3.658   0.344 -0.3011 -0.0055  0.2845
  360THF     C2 7669   1.486   3.732   0.234 -0.3677  0.0910  0.1207
  360THF     C3 7670   1.435   3.577   0.398 -0.1819 -0.2525 -0.4326
  360THF     H4 7671   1.573   3.761   0.177 -1.4326 -2.0946 -1.0116
  360THF     H5 7672   1.433   3.818   0.269  0.1866 -1.0210 -1.3004
  360THF     H6 7673   1.464   3.476   0.416 -2.1510  0.8032 -1.7411
  360THF     H7 7674   1.406   3.617   0.489 -1.2735  2.2010 -3.2372
  360THF     C8 7675   1.323   3.574   0.300  0.1309  0.1389 -0.2364
  360THF     C9 7676   1.382   3.636   0.181 -0.2687  0.3063 -0.4952
  360THF    H10 7677   1.237   3.632   0.320 -1.3265  0.7149 -0.2703
  360THF    H11 7678   1.280   3.480   0.283  2.1155  2.1356 -1.3478
  360THF    H12 7679   1.432   3.551   0.132 -0.0968 -0.2229 -1.0069
  360THF    H13 7680   1.304   3.678   0.115  0.3460  0.0706 -1.2679
  361THF     O1 7681   0.035   1.354   5.426 -0.0366  0.1248 -0.2209
  361THF     C2 7682   0.102   1.295   5.536  0.0447 -0.4127 -0.1829
  361THF     C3 7683   0.124   1.351   5.317 -0.6391  0.6492  0.3923
  361THF     H4 7684   0.021   1.269   5.615 -3.0091 -0.1786  0.9992
  361THF     H5 7685   0.171   1.367   5.590  0.8426 -0.2843  2.5646
  361THF     H6 7686   0.069   1.371   5.228  0.3053 -0.0678 -0.2960
  361THF     H7 7687   0.207   1.425   5.338  1.3157  0.3834  1.2134
  361THF     C8 7688   0.184   1.214   5.326 -0.3092  0.4420  0.4247
  361THF     C9 7689   0.170   1.180   5.477 -0.2346  0.4969  0.3215
  361THF    H10 7690   0.297   1.209   5.298 -1.0276 -0.9944  1.3687
  361THF    H11 7691   0.125   1.134   5.276 -1.2603  0.1582 -1.3600
  361THF    H12 7692   0.117   1.087   5.497  1.3531 -0.4274 -1.4899
  361THF    H13 7693   0.278   1.174   5.509  1.1345 -1.0368  0.1967
  362THF     O1 7694   1.294   0.997   2.030  0.1778 -0.2134 -0.2365
  362THF     C2 7695   1.329   0.994   2.161 -0.0231 -0.1655  0.0309
  362THF     C3 7696   1.153   0.968   2.021 -0.1024 -0.0602  0.4229
  362THF     H4 7697   1.322   1.092   2.196 -0.6666  2.1596  1.1991
  362THF     H5 7698   1.428   0.960   2.168  0.7806 -1.4001  1.4196
  362THF     H6 7699   1.089   1.042   2.064 -1.7118 -0.7806  0.0997
  362THF     H7 7700   1.122   0.954   1.919  0.3325  2.4117  2.0658
  362THF     C8 7701   1.143   0.848   2.108  0.0510 -0.1780  0.0225
  362THF     C9 7702   1.230   0.894   2.228  0.1224  0.0593 -0.3116
  362THF    H10 7703   1.195   0.766   2.059 -0.2514  0.5972 -0.1729
  362THF    H11 7704   1.036   0.821   2.128 -1.7942  0.8464 -1.0558
  362THF    H12 7705   1.172   0.959   2.302 -2.6653  0.4039  1.1898
  362THF    H13 7706   1.279   0.814   2.278 -2.6377 -0.5971 -1.2933
  363THF     O1 7707   0.276   1.646   3.245 -0.3295 -0.1151 -0.3091
  363THF     C2 7708   0.311   1.707   3.361 -0.1716 -0.3510  0.0824
  363THF     C3 7709   0.328   1.514   3.255 -1.1064 -0.4144  0.4355
  363THF     H4 7710   0.254   1.673   3.448  3.2063  0.3773  0.7422
  363THF     H5 7711   0.295   1.817   3.363  1.7546  1.4171  1.3199
  363THF     H6 7712   0.265   1.449   3.310 -0.5198 -0.3351 -1.1413
  363THF     H7 7713   0.338   1.451   3.156  0.3292 -1.2280  0.0392
  363THF     C8 7714   0.468   1.535   3.323  0.8582  0.0389  0.3089
  363THF     C9 7715   0.459   1.673   3.373  0.1494  0.2822 -0.2253
  363THF    H10 7716   0.543   1.528   3.248  2.5951  0.1364  2.0636
  363THF    H11 7717   0.488   1.462   3.402  0.7530  2.4771  1.5696
  363THF    H12 7718   0.485   1.687   3.480  0.5153 -0.4313  2.8826
  363THF    H13 7719   0.515   1.734   3.302  1.2783 -1.0879  2.7130
  364THF     O1 7720   3.936   2.494   3.762 -0.2920 -0.1708  0.7513
  364THF     C2 7721   4.043   2.406   3.808  0.1140 -0.1611 -0.2338
  364THF     C3 7722   3.904   2.454   3.632  0.0493  0.3068  0.8222
  364THF     H4 7723   4.007   2.315   3.865 -1.1875 -1.5422 -0.6807
  364THF     H5 7724   4.103   2.459   3.877 -0.5682 -1.1849 -3.7834
  364THF     H6 7725   3.812   2.393   3.635 -1.2991 -1.4398 -1.9108
  364THF     H7 7726   3.893   2.544   3.572 -2.1124 -0.8614 -0.5230
  364THF     C8 7727   4.011   2.378   3.569  0.0621 -0.6425  0.4437
  364THF     C9 7728   4.119   2.371   3.675 -0.2025 -0.7246 -0.1080
  364THF    H10 7729   4.046   2.425   3.487  1.8965  1.6464  1.3661
  364THF    H11 7730   3.977   2.281   3.550 -1.4480  0.0411 -2.2165
  364THF    H12 7731   4.159   2.274   3.683  0.3093  0.1334  2.0802
  364THF    H13 7732   4.186   2.453   3.667  0.4366 -0.6413 -0.2261
  365THF     O1 7733   1.919   4.862   2.577  0.0687 -0.1768  0.5327
  365THF     C2 7734   1.857   4.965   2.652 -0.0865  0.3358 -0.0593
  365THF     C3 7735   1.871   4.739   2.618  0.3037  0.4056  0.8968
  365THF     H4 7736   1.764   4.990   2.599  1.1985 -1.0564 -1.0737
  365THF     H5 7737   1.916   5.050   2.674  0.2933  2.2356  1.0396
  365THF     H6 7738   1.810   4.691   2.537  0.5493 -1.6538  2.0677
  365THF     H7 7739   1.970   4.689   2.638  0.1006  1.4694 -4.4973
  365THF     C8 7740   1.790   4.763   2.746  0.6172  0.2483  0.0547
  365THF     C9 7741   1.821   4.906   2.789  0.0737  0.1988  0.4506
  365THF    H10 7742   1.802   4.686   2.816  2.0751 -1.2777  2.0549
  365THF    H11 7743   1.687   4.759   2.709  0.0563  1.7673  0.7638
  365THF    H12 7744   1.739   4.945   2.850 -1.4856 -1.7858  0.2089
  365THF    H13 7745   1.914   4.893   2.855  2.0196 -3.2025  1.2513
  366THF     O1 7746   2.460   2.329   1.140 -0.2044 -0.3899 -0.3781
  366THF     C2 7747   2.551   2.237   1.079  0.1420 -0.1073 -0.1446
  366THF     C3 7748   2.535   2.435   1.198  0.8857 -0.5595 -0.2478
  366THF     H4 7749   2.509   2.175   1.002  1.7662 -1.2158  2.4534
  366THF     H5 7750   2.588   2.163   1.143 -0.2726  1.8667 -2.5926
  366THF     H6 7751   2.484   2.528   1.162 -1.0021 -0.6163 -2.6757
  366THF     H7 7752   2.526   2.433   1.305 -0.6000 -1.6569 -0.5030
  366THF     C8 7753   2.679   2.420   1.153 -0.2133 -0.4449 -0.6186
  366THF     C9 7754   2.672   2.321   1.039  0.6053 -0.1406 -0.1360
  366THF    H10 7755   2.747   2.383   1.230  0.2798 -0.9714 -1.3112
  366THF    H11 7756   2.718   2.516   1.127  1.0002 -1.0218  2.1971
  366THF    H12 7757   2.646   2.379   0.962  0.2439 -0.8902 -1.2417
  366THF    H13 7758   2.766   2.272   1.022 -0.4334 -1.7318  0.0252
  367THF     O1 7759   4.640   0.800   4.804 -0.0831  0.1189  0.0202
  367THF     C2 7760   4.529   0.889   4.793 -0.4078  0.0497  0.1819
  367THF     C3 7761   4.654   0.735   4.679 -0.2141  0.1280  0.1938
  367THF     H4 7762   4.559   0.982   4.748  0.6446 -0.8733  0.9966
  367THF     H5 7763   4.481   0.940   4.875  1.7903 -0.4470 -2.0359
  367THF     H6 7764   4.732   0.788   4.613 -0.4627 -0.7469 -1.7037
  367THF     H7 7765   4.705   0.639   4.699  1.1449  2.9631  2.8581
  367THF     C8 7766   4.513   0.717   4.614  0.3640  0.5583 -0.0039
  367THF     C9 7767   4.432   0.814   4.701  0.5376 -0.6438  0.3065
  367THF    H10 7768   4.472   0.615   4.633  0.0354 -0.2594  1.7817
  367THF    H11 7769   4.500   0.755   4.513 -1.0763  3.3332 -0.7441
  367THF    H12 7770   4.389   0.884   4.630 -1.2110 -1.3740 -0.7526
  367THF    H13 7771   4.350   0.768   4.763 -0.7591 -3.3849  2.1463
  368THF     O1 7772   2.426   3.184   3.049  0.3202  0.2730  0.0816
  368THF     C2 7773   2.367   3.297   2.994 -0.5238 -0.0919  0.8884
  368THF     C3 7774   2.320   3.113   3.115  1.4566  0.8596  0.1956
  368THF     H4 7775   2.321   3.272   2.904  2.2218 -0.1411  2.3095
  368THF     H5 7776   2.453   3.367   2.970  3.0217  1.0516 -0.3522
  368THF     H6 7777   2.251   3.065   3.050 -3.2865 -0.9727  2.5666
  368THF     H7 7778   2.355   3.026   3.176  1.1927 -1.5525  0.6440
  368THF     C8 7779   2.265   3.222   3.200 -1.3843  0.3480  0.2812
  368THF     C9 7780   2.275   3.339   3.110 -0.5528  0.7660  1.1007
  368THF    H10 7781   2.325   3.231   3.286 -0.1101 -2.4289 -2.2348
  368THF    H11 7782   2.161   3.192   3.220 -1.7520 -1.6168 -0.9014
  368THF    H12 7783   2.170   3.345   3.068 -2.5839  0.4651  0.3839
  368THF    H13 7784   2.319   3.419   3.161  0.4291 -0.6371 -0.4719
  369THF     O1 7785   0.120   1.612   4.759  0.3832  0.5115  0.0358
  369THF     C2 7786   0.187   1.654   4.646  0.0751  0.3160 -0.1117
  369THF     C3 7787   0.144   1.706   4.865 -0.0995  0.0092  0.2864
  369THF     H4 7788   0.130   1.722   4.586  2.3701 -2.6827 -0.1382
  369THF     H5 7789   0.208   1.562   4.586  2.7723  1.2330 -2.0729
  369THF     H6 7790   0.089   1.799   4.848 -1.3544  0.7105 -0.6705
  369THF     H7 7791   0.123   1.661   4.963  0.0071  0.3853 -1.0164
  369THF     C8 7792   0.295   1.733   4.849  0.0372  0.6925 -0.0244
  369THF     C9 7793   0.319   1.714   4.702 -0.6962  0.7624 -0.2197
  369THF    H10 7794   0.355   1.653   4.896  1.7781 -1.2007 -1.5912
  369THF    H11 7795   0.333   1.822   4.903 -0.5857 -0.1429  0.4979
  369THF    H12 7796   0.343   1.803   4.649 -1.0262 -0.4278  2.3298
  369THF    H13 7797   0.398   1.637   4.693  0.9222  1.4772 -3.3228
  370THF     O1 7798   4.318   4.341   2.064 -0.2694  0.3611  0.3703
  370THF     C2 7799   4.337   4.205   2.096  0.6863  0.9779  0.1813
  370THF     C3 7800   4.189   4.353   1.998  0.4976 -0.4080  0.1965
  370THF     H4 7801   4.355   4.187   2.197  1.7817 -0.6221 -2.0207
  370THF     H5 7802   4.423   4.172   2.031 -0.2140  1.3550 -3.5436
  370THF     H6 7803   4.141   4.447   2.015  1.9969  0.9117 -0.2267
  370THF     H7 7804   4.191   4.336   1.894  0.3882 -0.7265 -0.1727
  370THF     C8 7805   4.101   4.237   2.050  0.1516 -0.1296 -0.0495
  370THF     C9 7806   4.212   4.131   2.054  0.1842 -0.5497 -0.4469
  370THF    H10 7807   4.019   4.206   1.988 -0.3863  2.6717 -0.7318
  370THF    H11 7808   4.061   4.251   2.152 -0.8772 -1.8204 -0.0409
  370THF    H12 7809   4.179   4.052   2.123 -0.0993  0.2153 -1.9301
  370THF    H13 7810   4.231   4.082   1.960 -2.4913 -0.1368 -1.5413
  371THF     O1 7811   2.216   3.940   4.239 -0.2573 -0.6580 -0.1966
  371THF     C2 7812   2.199   3.922   4.099  0.3464  0.2251 -0.4276
  371THF     C3 7813   2.138   3.843   4.304  0.2300 -0.4071  0.5479
  371THF     H4 7814   2.287   3.962   4.047  0.8084  0.5445 -1.6834
  371THF     H5 7815   2.102   3.968   4.079 -1.5010 -0.5812 -1.3150
  371THF     H6 7816   2.174   3.808   4.400  0.2859  2.3333 -1.3242
  371THF     H7 7817   2.037   3.885   4.316  2.5173  0.7896 -1.0272
  371THF     C8 7818   2.132   3.717   4.209  0.6785 -0.7218  0.1895
  371THF     C9 7819   2.181   3.777   4.076  0.3276  0.4413  0.4735
  371THF    H10 7820   2.025   3.687   4.207 -0.8656  0.9320  0.3892
  371THF    H11 7821   2.196   3.641   4.250  1.2201 -0.3759 -0.5531
  371THF    H12 7822   2.274   3.726   4.053 -3.0373  1.0933  0.2539
  371THF    H13 7823   2.111   3.761   3.991  0.3629 -3.0637 -2.6704
  372THF     O1 7824   1.880   3.572   4.443 -0.1438  0.2540 -0.3010
  372THF     C2 7825   1.915   3.569   4.586 -0.8870  0.0449 -0.4612
  372THF     C3 7826   1.941   3.459   4.376 -0.7679  0.5632  0.4557
  372THF     H4 7827   1.848   3.497   4.632  0.9507  0.6469 -4.5830
  372THF     H5 7828   1.902   3.677   4.616  0.5084 -0.2611  1.1689
  372THF     H6 7829   1.875   3.374   4.402  1.4126  1.3174 -0.0105
  372THF     H7 7830   1.956   3.470   4.272 -0.1032  0.4186 -1.3922
  372THF     C8 7831   2.070   3.435   4.455  0.0903  0.5016  0.0210
  372THF     C9 7832   2.063   3.535   4.578 -0.0317 -0.3787  0.3361
  372THF    H10 7833   2.158   3.450   4.397 -1.6351 -1.0935  0.5846
  372THF    H11 7834   2.060   3.330   4.487  0.7203  1.0497 -0.0495
  372THF    H12 7835   2.105   3.507   4.681 -0.2122 -1.7895  3.1035
  372THF    H13 7836   2.112   3.632   4.552  0.3475 -0.9678  0.3133
  373THF     O1 7837   3.410   2.266   5.162  0.0401 -0.0737  0.3305
  373THF     C2 7838   3.552   2.277   5.176  0.5073 -0.0145 -0.0124
  373THF     C3 7839   3.358   2.385   5.219 -0.3954  0.9643 -0.0582
  373THF     H4 7840   3.613   2.206   5.115  3.4406 -0.0381 -0.6807
  373THF     H5 7841   3.571   2.250   5.275 -0.3374  1.9684  1.1575
  373THF     H6 7842   3.252   2.383   5.199 -0.1675 -0.3697 -0.5626
  373THF     H7 7843   3.378   2.388   5.329  1.1752  0.7895  2.5006
  373THF     C8 7844   3.441   2.490   5.145 -0.7560  0.2471 -0.3146
  373THF     C9 7845   3.578   2.426   5.148 -0.1167  0.1414  0.8845
  373THF    H10 7846   3.449   2.573   5.215 -0.3223  0.1534  0.9740
  373THF    H11 7847   3.423   2.512   5.040  1.3589  0.1628  1.2051
  373THF    H12 7848   3.633   2.431   5.059 -0.6055 -2.4487  0.9316
  373THF    H13 7849   3.636   2.458   5.230 -0.9057  0.6259 -2.8154
  374THF     O1 7850   2.035   2.926   4.285 -0.1849 -0.8932  0.0130
  374THF     C2 7851   1.947   2.873   4.197  0.0509  0.1903 -0.0138
  374THF     C3 7852   1.979   2.942   4.417  0.1977 -0.1797  0.1810
  374THF     H4 7853   1.924   2.771   4.208 -0.3121  0.9198 -0.6531
  374THF     H5 7854   1.976   2.893   4.095 -1.9920 -0.5055  1.5788
  374THF     H6 7855   1.991   2.859   4.481  1.3293  0.6494  0.7266
  374THF     H7 7856   2.021   3.025   4.471 -0.5210  1.1645 -1.6860
  374THF     C8 7857   1.830   2.955   4.383  0.1668 -0.6717 -0.0377
  374THF     C9 7858   1.815   2.940   4.237 -0.3021 -0.7026 -0.6440
  374THF    H10 7859   1.778   3.055   4.415 -1.1762  3.6110 -0.6560
  374THF    H11 7860   1.774   2.880   4.435 -1.3950  0.9385 -1.5022
  374THF    H12 7861   1.733   2.883   4.202  0.7451 -2.3590 -2.2017
  374THF    H13 7862   1.800   3.039   4.202 -0.4451 -0.8865 -0.7870
  375THF     O1 7863   1.292   1.773   0.273  0.4986  0.0948  0.2669
  375THF     C2 7864   1.153   1.791   0.293 -0.1116  0.3561  0.7519
  375THF     C3 7865   1.305   1.727   0.133  0.5934  0.2519 -0.0118
  375THF     H4 7866   1.112   1.886   0.262  0.6995  0.4609 -0.9316
  375THF     H5 7867   1.125   1.780   0.397  0.5888 -0.1002  2.7191
  375THF     H6 7868   1.304   1.808   0.061  1.4931  2.1975 -0.1828
  375THF     H7 7869   1.400   1.686   0.116  0.4695 -1.7678 -0.2738
  375THF     C8 7870   1.186   1.637   0.115 -0.5203 -0.3358 -0.0620
  375THF     C9 7871   1.086   1.679   0.222  0.5404 -0.1850  0.6224
  375THF    H10 7872   1.206   1.533   0.143  2.7031 -1.1089 -1.1123
  375THF    H11 7873   1.143   1.653   0.017  0.8971  1.7191  1.3981
  375THF    H12 7874   0.996   1.710   0.166 -1.1451 -1.6530  0.1411
  375THF    H13 7875   1.052   1.597   0.290 -1.4478 -2.3184 -1.8539
  376THF     O1 7876   3.106   1.024   0.788 -0.4479  0.5498  0.1572
  376THF     C2 7877   3.170   0.968   0.676 -0.1858 -0.4394 -0.0324
  376THF     C3 7878   2.969   1.025   0.763 -0.2066  0.1031 -0.1431
  376THF     H4 7879   3.279   0.952   0.684  0.6847 -1.8666 -0.5695
  376THF     H5 7880   3.156   1.025   0.586 -0.1154 -0.6956  0.8925
  376THF     H6 7881   2.909   0.998   0.853  0.5019  1.0030  0.1861
  376THF     H7 7882   2.950   1.120   0.717 -0.7620  0.5280  0.3796
  376THF     C8 7883   2.945   0.899   0.672  0.1081  0.4026  0.9948
  376THF     C9 7884   3.083   0.837   0.662  0.3356 -0.0048  0.0128
  376THF    H10 7885   2.923   0.922   0.573  2.1857 -0.9168  1.7737
  376THF    H11 7886   2.867   0.840   0.704  1.3355  2.5230 -1.5169
  376THF    H12 7887   3.109   0.766   0.737  2.0920  2.6651  3.0201
  376THF    H13 7888   3.101   0.794   0.562  1.3649  1.5113 -2.1919
  377THF     O1 7889   1.520   2.114   3.505 -0.1048 -0.3031 -0.2847
  377THF     C2 7890   1.537   1.990   3.571 -0.4155  0.2479 -0.1873
  377THF     C3 7891   1.403   2.178   3.548 -0.0187 -0.5873 -0.5331
  377THF     H4 7892   1.640   1.982   3.607 -1.7073 -0.9657  0.0430
  377THF     H5 7893   1.531   1.912   3.494  0.3581  5.1399  1.5026
  377THF     H6 7894   1.402   2.286   3.538  0.7004  1.6301 -1.9185
  377THF     H7 7895   1.318   2.141   3.491  0.4841  0.7227 -0.6758
  377THF     C8 7896   1.395   2.135   3.695  0.2455  0.2072 -0.1738
  377THF     C9 7897   1.440   1.988   3.690 -0.0972 -0.5060 -0.3720
  377THF    H10 7898   1.287   2.147   3.726 -2.8670  0.5338  1.6625
  377THF    H11 7899   1.465   2.195   3.747 -0.5956  1.7723 -0.3736
  377THF    H12 7900   1.488   1.956   3.779 -1.2728 -1.3730  0.9217
  377THF    H13 7901   1.361   1.912   3.651 -0.9288 -2.6728 -1.8633
  378THF     O1 7902   1.627   0.752   3.700 -0.0079  0.0235 -0.2397
  378THF     C2 7903   1.538   0.792   3.606 -0.2767  0.2185 -0.9487
  378THF     C3 7904   1.743   0.726   3.634 -0.2019 -0.1179  0.6498
  378THF     H4 7905   1.440   0.825   3.643 -1.1062  0.5293  0.3550
  378THF     H5 7906   1.515   0.717   3.534  0.2115 -0.5106  0.0686
  378THF     H6 7907   1.827   0.725   3.699  0.1689  0.4196  0.4918
  378THF     H7 7908   1.732   0.634   3.580 -1.2943  0.7179  1.1574
  378THF     C8 7909   1.752   0.842   3.533  0.2084  0.1711 -0.5680
  378THF     C9 7910   1.612   0.904   3.539 -0.2197 -0.1365 -0.1847
  378THF    H10 7911   1.779   0.818   3.430  1.6530 -0.9129  2.4863
  378THF    H11 7912   1.824   0.925   3.559 -1.5917  2.0352 -2.1221
  378THF    H12 7913   1.623   0.994   3.607  2.3331  1.6841  2.7614
  378THF    H13 7914   1.576   0.935   3.437  0.7864 -0.6646 -1.3387
  379THF     O1 7915   1.333   4.316   1.572  0.3870  0.0528  0.1083
  379THF     C2 7916   1.423   4.413   1.623 -0.7090 -0.5029  0.1797
  379THF     C3 7917   1.332   4.200   1.643 -0.1883 -0.3520  0.4757
  379THF     H4 7918   1.378   4.479   1.699 -2.0318 -0.3263 -1.9476
  379THF     H5 7919   1.447   4.485   1.546 -1.1597  0.5491  2.8822
  379THF     H6 7920   1.258   4.224   1.725  0.5904  0.7757  0.5479
  379THF     H7 7921   1.296   4.105   1.601  0.1098 -0.3001 -0.1508
  379THF     C8 7922   1.480   4.192   1.708 -0.1889 -0.3107  0.2844
  379THF     C9 7923   1.540   4.330   1.680  0.6463  0.2463 -0.2461
  379THF    H10 7924   1.545   4.112   1.671  0.6809 -0.0647  0.8596
  379THF    H11 7925   1.467   4.172   1.811 -2.1052 -0.9193 -0.3762
  379THF    H12 7926   1.579   4.364   1.779  0.1130 -1.1120 -0.3150
  379THF    H13 7927   1.617   4.323   1.599 -0.7286  0.3263 -2.0349
  380THF     O1 7928   1.374   3.956   2.962  0.3897 -0.2046 -0.1252
  380THF     C2 7929   1.291   3.969   2.848 -0.1190  0.0804  0.0329
  380THF     C3 7930   1.504   3.987   2.933  0.7403 -0.1551 -0.5436
  380THF     H4 7931   1.187   3.960   2.863  2.1951 -0.7506  0.3930
  380THF     H5 7932   1.317   3.878   2.788 -0.2020  0.6576 -1.7764
  380THF     H6 7933   1.572   3.999   3.016 -0.4769  1.2909  0.5166
  380THF     H7 7934   1.538   3.904   2.863  1.9328 -1.0931  0.6159
  380THF     C8 7935   1.488   4.112   2.858 -0.7129 -0.2421  0.3409
  380THF     C9 7936   1.347   4.103   2.800 -0.3411 -0.1166  0.6390
  380THF    H10 7937   1.561   4.130   2.781 -2.8609  0.0495 -0.0047
  380THF    H11 7938   1.488   4.197   2.923  3.3444  1.5067 -2.2335
  380THF    H12 7939   1.272   4.176   2.830  1.1028 -0.9332 -0.5307
  380THF    H13 7940   1.362   4.103   2.694 -1.6736 -2.3216 -0.0432
  381THF     O1 7941   3.810   2.514   1.775 -0.5846  0.4598 -0.2905
  381THF     C2 7942   3.770   2.643   1.753 -0.4517  0.2086  1.0847
  381THF     C3 7943   3.727   2.425   1.703 -0.0525  0.7717 -0.2683
  381THF     H4 7944   3.851   2.721   1.770 -0.2054  5.7431  3.1737
  381THF     H5 7945   3.676   2.667   1.815 -2.5307  0.2685 -2.9993
  381THF     H6 7946   3.797   2.352   1.670 -0.6368  1.3372 -2.6321
  381THF     H7 7947   3.662   2.376   1.779 -1.7732  1.6450  0.0660
  381THF     C8 7948   3.659   2.514   1.595 -1.4438  0.2710  0.5234
  381THF     C9 7949   3.734   2.643   1.605 -0.5522 -1.2457 -0.1568
  381THF    H10 7950   3.560   2.523   1.629  1.4051  1.1555 -1.9720
  381THF    H11 7951   3.655   2.468   1.496 -2.0919  1.3497 -0.4077
  381THF    H12 7952   3.831   2.643   1.552 -1.7733  1.8055  0.1236
  381THF    H13 7953   3.676   2.735   1.575  0.7383 -0.1605 -0.8645
  382THF     O1 7954   5.453   1.586   0.553  0.6385 -0.1904  0.1563
  382THF     C2 7955   5.588   1.572   0.521 -0.0128 -0.2818  0.5775
  382THF     C3 7956   5.376   1.461   0.520  0.1038  0.7325 -0.4982
  382THF     H4 7957   5.640   1.519   0.606 -1.9157  1.5193  2.3450
  382THF     H5 7958   5.637   1.664   0.490  2.0824 -0.3297 -1.2285
  382THF     H6 7959   5.399   1.379   0.594  1.7719 -2.2130  1.3400
  382THF     H7 7960   5.279   1.492   0.494  1.0065 -2.7902 -1.7440
  382THF     C8 7961   5.430   1.425   0.382 -0.2576 -0.8192 -0.2975
  382THF     C9 7962   5.578   1.475   0.393  0.6353  0.0658  0.1776
  382THF    H10 7963   5.383   1.482   0.302 -2.9686 -0.6645 -1.4530
  382THF    H11 7964   5.400   1.318   0.377  1.7827 -1.1953 -0.1598
  382THF    H12 7965   5.644   1.390   0.401  2.1105  0.8205 -1.2193
  382THF    H13 7966   5.602   1.528   0.299  0.2730  0.8179  0.4421
  383THF     O1 7967   1.387   1.886   1.261  0.3959  0.0070  0.1630
  383THF     C2 7968   1.475   1.900   1.374 -0.7533 -0.1850  0.3970
  383THF     C3 7969   1.383   2.006   1.188 -0.2226  0.6006 -0.2891
  383THF     H4 7970   1.573   1.872   1.334  1.8351 -0.1922  3.2520
  383THF     H5 7971   1.450   1.839   1.455 -1.3008  2.0037  1.3388
  383THF     H6 7972   1.433   1.984   1.088 -1.1395 -1.2823 -2.0172
  383THF     H7 7973   1.287   2.040   1.153  0.3550 -3.3005 -0.9286
  383THF     C8 7974   1.459   2.118   1.265  0.2505 -0.3201  0.3206
  383THF     C9 7975   1.457   2.050   1.407  0.6155 -0.5895 -0.1793
  383THF    H10 7976   1.413   2.216   1.247 -0.5784  0.8973 -0.1491
  383THF    H11 7977   1.560   2.129   1.225  0.9611  0.6440  0.6379
  383THF    H12 7978   1.535   2.086   1.469 -0.4579 -1.5990  0.1721
  383THF    H13 7979   1.357   2.075   1.451  2.9160  0.2914  1.9012
  384THF     O1 7980   0.089   4.869   4.659  0.8520  0.1018  0.3350
  384THF     C2 7981   0.090   4.958   4.551 -1.1425 -0.0180  0.4303
  384THF     C3 7982  -0.007   4.919   4.748  0.3607  0.0774  0.1640
  384THF     H4 7983  -0.002   4.946   4.497 -0.2966 -1.3467 -0.2558
  384THF     H5 7984   0.187   4.945   4.486  1.8916  2.4934  0.2951
  384THF     H6 7985  -0.109   4.878   4.725 -1.9503  1.5752  1.4314
  384THF     H7 7986   0.022   4.891   4.851  0.7473  0.2319 -1.0509
  384THF     C8 7987  -0.004   5.071   4.735  0.0570  0.4525 -0.5105
  384THF     C9 7988   0.092   5.094   4.620 -0.3183  0.7156  0.9471
  384THF    H10 7989   0.043   5.103   4.824 -2.0484  1.6583 -0.6486
  384THF    H11 7990  -0.096   5.129   4.720 -1.1880  2.2346  0.6650
  384THF    H12 7991   0.072   5.169   4.542 -0.0323 -1.0329 -2.1467
  384THF    H13 7992   0.196   5.116   4.653 -0.4208 -0.9979 -1.7764
  385THF     O1 7993   4.642   1.629   3.171 -0.4855  0.0108  0.6107
  385THF     C2 7994   4.686   1.767   3.189  0.0501  0.6459 -0.3599
  385THF     C3 7995   4.760   1.549   3.176  0.4833  0.5192  0.3163
  385THF     H4 7996   4.596   1.816   3.216  0.1472  1.0354 -0.3900
  385THF     H5 7997   4.737   1.793   3.094 -3.4077  0.7189 -0.1247
  385THF     H6 7998   4.746   1.443   3.202  0.4788  0.5167 -0.0444
  385THF     H7 7999   4.825   1.545   3.087 -0.1990  0.7942 -1.7897
  385THF     C8 8000   4.845   1.627   3.284  0.4489 -0.1315 -0.9602
  385THF     C9 8001   4.792   1.770   3.288  0.5262  0.3145 -0.7894
  385THF    H10 8002   4.949   1.636   3.274 -0.6879  1.5732 -1.7380
  385THF    H11 8003   4.824   1.580   3.383  1.2641 -1.2885  1.3059
  385THF    H12 8004   4.748   1.779   3.392 -0.4547 -2.0911 -0.6665
  385THF    H13 8005   4.864   1.846   3.267 -0.1877 -0.3517 -1.4041
  386THF     O1 8006   3.415   1.536   0.038  0.5747  0.4495 -0.2991
  386THF     C2 8007   3.465   1.541   0.173 -0.6194 -0.0645 -0.8921
  386THF     C3 8008   3.433   1.671  -0.012  0.1125  1.1701 -0.7112
  386THF     H4 8009   3.495   1.435   0.198  2.9346 -0.5362  1.0975
  386THF     H5 8010   3.386   1.569   0.242 -1.9757 -2.8159  0.9584
  386THF     H6 8011   3.427   1.680  -0.122  0.4871 -0.3055  1.1089
  386THF     H7 8012   3.349   1.728   0.039  0.9176 -1.6573  0.1740
  386THF     C8 8013   3.569   1.705   0.028  0.0631 -0.5174  0.1389
  386THF     C9 8014   3.588   1.632   0.158  0.1071  0.5406  0.4171
  386THF    H10 8015   3.595   1.807   0.043 -0.9337  2.3122 -3.1986
  386THF    H11 8016   3.646   1.669  -0.046  2.8292 -0.1669 -2.2936
  386THF    H12 8017   3.680   1.574   0.144  1.4489 -1.8818 -3.5054
  386THF    H13 8018   3.595   1.710   0.232  1.9939  0.3942 -3.0484
  387THF     O1 8019   2.623   4.932   0.085 -0.0447  0.1642 -0.2481
  387THF     C2 8020   2.631   4.945   0.228  0.9769  0.1444  0.5612
  387THF     C3 8021   2.487   4.949   0.048 -0.6877  0.8515  0.5569
  387THF     H4 8022   2.628   5.051   0.257 -0.7839 -0.0242  1.5679
  387THF     H5 8023   2.724   4.905   0.264 -1.2069  1.4504  2.3357
  387THF     H6 8024   2.459   5.051   0.039 -2.4711 -1.8069 -0.0168
  387THF     H7 8025   2.477   4.916  -0.054 -1.5250  0.2845 -0.2071
  387THF     C8 8026   2.420   4.865   0.150  0.5007 -0.0204 -0.0258
  387THF     C9 8027   2.499   4.884   0.282  0.9603  0.1959 -0.1041
  387THF    H10 8028   2.441   4.766   0.111 -0.3652 -1.4287 -0.7311
  387THF    H11 8029   2.309   4.879   0.153  0.2177  3.7552 -1.3412
  387THF    H12 8030   2.452   4.943   0.367 -0.6277  0.9873  0.8952
  387THF    H13 8031   2.528   4.792   0.325  2.2187 -0.7517 -2.3938
  388THF     O1 8032   1.990   0.498   3.355  0.0061 -0.3843  0.6505
  388THF     C2 8033   2.064   0.386   3.405  0.9655 -0.1387 -0.2187
  388THF     C3 8034   2.073   0.615   3.381  0.6480 -0.1551  1.1297
  388THF     H4 8035   2.152   0.368   3.344 -4.9215  0.5857  1.2888
  388THF     H5 8036   1.984   0.307   3.399 -0.0463 -1.1962 -0.6273
  388THF     H6 8037   2.161   0.623   3.314  0.1219 -0.3204 -3.1185
  388THF     H7 8038   2.008   0.705   3.372  0.5698 -1.2997  2.8091
  388THF     C8 8039   2.104   0.595   3.526  0.2150  0.0941 -0.0260
  388THF     C9 8040   2.085   0.443   3.545 -0.0815  0.5099  0.4936
  388THF    H10 8041   2.039   0.644   3.607 -2.1457 -0.4437  0.3189
  388THF    H11 8042   2.208   0.618   3.553  2.3264 -1.6189 -0.1458
  388THF    H12 8043   2.171   0.399   3.592 -3.5874 -1.0190 -0.4059
  388THF    H13 8044   2.001   0.429   3.611 -1.0082  1.9095  0.2303
  389THF     O1 8045   1.930   3.975   3.088 -0.0554  0.1724 -0.0131
  389THF     C2 8046   1.878   3.970   3.216  0.9881 -0.2951 -0.2213
  389THF     C3 8047   2.013   4.087   3.067  0.0131  0.5988 -0.7615
  389THF     H4 8048   1.839   3.873   3.254  0.0162  0.9212  0.9131
  389THF     H5 8049   1.815   4.049   3.234  3.9189 -1.3325  0.7811
  389THF     H6 8050   2.084   4.078   2.989 -2.3795  0.6989  0.5720
  389THF     H7 8051   1.953   4.165   3.030 -0.5385 -0.7200  0.1541
  389THF     C8 8052   2.079   4.114   3.198  0.0549 -0.3504  0.2320
  389THF     C9 8053   1.997   4.020   3.288 -0.4337  0.0670  0.1359
  389THF    H10 8054   2.071   4.209   3.230 -2.5405  0.2842  1.4342
  389THF    H11 8055   2.185   4.092   3.200 -1.4963  0.4748  1.2085
  389THF    H12 8056   2.051   3.939   3.323 -3.6107 -0.4294  0.6022
  389THF    H13 8057   1.980   4.073   3.380  1.7525 -0.1431  2.6011
  390THF     O1 8058   5.435   2.621   2.464  0.1220 -0.8702  0.7068
  390THF     C2 8059   5.574   2.649   2.492  0.0240  0.1560  0.3256
  390THF     C3 8060   5.399   2.697   2.349 -0.1927 -0.7104 -0.1892
  390THF     H4 8061   5.641   2.573   2.466 -1.7943 -0.0069 -1.8168
  390THF     H5 8062   5.594   2.665   2.599 -0.7370 -0.4266 -3.0964
  390THF     H6 8063   5.404   2.645   2.251 -0.3323  0.7692  1.2387
  390THF     H7 8064   5.301   2.733   2.360  0.8524  0.3830 -0.2778
  390THF     C8 8065   5.487   2.812   2.345 -1.0248 -0.5175 -0.1048
  390THF     C9 8066   5.621   2.760   2.396 -0.1076 -0.3649 -0.2504
  390THF    H10 8067   5.468   2.895   2.413  2.7382 -2.1267 -1.2000
  390THF    H11 8068   5.493   2.856   2.243  1.0101 -0.3458 -3.7510
  390THF    H12 8069   5.687   2.716   2.318  0.4557 -2.7364 -0.5010
  390THF    H13 8070   5.673   2.843   2.439 -0.7088  1.2038 -3.2550
  391THF     O1 8071   2.244   1.407   0.357  0.2394  0.4553  0.0062
  391THF     C2 8072   2.122   1.344   0.326 -0.6386 -0.3700 -0.6826
  391THF     C3 8073   2.215   1.540   0.359 -0.4046  0.3903 -0.4336
  391THF     H4 8074   2.066   1.339   0.421 -2.7694 -0.4616  4.5029
  391THF     H5 8075   2.138   1.245   0.284  2.3465 -2.9117 -5.0123
  391THF     H6 8076   2.162   1.562   0.454  0.4220  2.0623  1.3775
  391THF     H7 8077   2.311   1.589   0.371 -1.4002  0.0232  0.3491
  391THF     C8 8078   2.130   1.565   0.235  1.1869 -0.2491 -0.0503
  391THF     C9 8079   2.051   1.439   0.222  0.5217 -0.2513 -0.2479
  391THF    H10 8080   2.200   1.584   0.156  1.2463  0.3234  1.3016
  391THF    H11 8081   2.064   1.651   0.236 -0.4657 -1.5510 -1.8514
  391THF    H12 8082   1.944   1.456   0.237 -0.9024  0.5730 -1.0175
  391THF    H13 8083   2.050   1.393   0.119  0.8519 -0.6981 -0.7001
  392THF     O1 8084   2.722   3.762   3.855  0.1934  0.5087  0.4790
  392THF     C2 8085   2.795   3.717   3.972  0.0179  0.0278 -1.0341
  392THF     C3 8086   2.778   3.883   3.812 -0.0102 -0.3004  0.0517
  392THF     H4 8087   2.851   3.628   3.949 -1.1888  1.9324  4.0248
  392THF     H5 8088   2.733   3.683   4.055  0.2001  3.4599 -0.8891
  392THF     H6 8089   2.772   3.895   3.707  2.9030  0.5158  4.1068
  392THF     H7 8090   2.719   3.970   3.854  0.5441  0.1430  0.0583
  392THF     C8 8091   2.918   3.894   3.875 -0.3361  0.1046 -0.3016
  392THF     C9 8092   2.890   3.832   4.005 -0.4695 -0.0766 -0.4597
  392THF    H10 8093   2.943   3.998   3.872 -1.6309 -2.2506  0.6185
  392THF    H11 8094   2.981   3.823   3.813  0.6430  1.2705  0.3525
  392THF    H12 8095   2.981   3.792   4.051 -1.2380 -0.3398 -0.4596
  392THF    H13 8096   2.845   3.906   4.075  1.0738 -2.4753  1.5343
  393THF     O1 8097   4.463   2.504   0.739 -0.4436  0.2066 -0.1771
  393THF     C2 8098   4.519   2.625   0.689  0.1583  0.0675 -0.2413
  393THF     C3 8099   4.375   2.542   0.844 -0.7512  0.0284  0.6265
  393THF     H4 8100   4.536   2.617   0.581 -1.5000 -1.3343 -0.4387
  393THF     H5 8101   4.598   2.666   0.746 -0.5235  0.8476 -1.6572
  393THF     H6 8102   4.289   2.476   0.862 -2.4932  2.8770  0.0829
  393THF     H7 8103   4.433   2.538   0.929 -1.1065 -0.1413  2.0140
  393THF     C8 8104   4.332   2.681   0.815 -0.1974  0.2587 -0.6964
  393THF     C9 8105   4.408   2.718   0.690 -0.5347 -0.1425 -0.2211
  393THF    H10 8106   4.368   2.740   0.895  2.5938 -1.2557 -1.1565
  393THF    H11 8107   4.225   2.685   0.800  2.8007  1.4139  0.3929
  393THF    H12 8108   4.343   2.715   0.604 -1.5897 -1.1781  1.5894
  393THF    H13 8109   4.442   2.818   0.706 -1.1154 -1.7850  0.1377
  394THF     O1 8110   5.472   1.008   4.843  0.0770 -0.1284  0.1538
  394THF     C2 8111   5.470   1.065   4.713 -0.4534 -0.0104 -1.2355
  394THF     C3 8112   5.437   1.109   4.941  0.3743 -0.1023 -0.0914
  394THF     H4 8113   5.449   0.989   4.633  1.1309  1.0293 -1.3932
  394THF     H5 8114   5.565   1.107   4.699 -0.8307 -1.1130  1.1431
  394THF     H6 8115   5.354   1.086   4.998  1.2098 -0.0474  2.2518
  394THF     H7 8116   5.516   1.127   5.013  2.2086 -1.6426  2.1660
  394THF     C8 8117   5.394   1.234   4.858  0.0354  0.3494 -0.1102
  394THF     C9 8118   5.374   1.180   4.718 -0.0455 -0.4939 -0.0420
  394THF    H10 8119   5.472   1.312   4.858  2.3382  0.7073 -1.2189
  394THF    H11 8120   5.308   1.285   4.905  0.7871 -1.4940  2.8669
  394THF    H12 8121   5.276   1.127   4.714 -0.6990 -1.1793  0.2503
  394THF    H13 8122   5.386   1.251   4.640 -0.7134  0.2482  0.8322
  395THF     O1 8123   5.068   0.737   5.034 -0.3452  0.3618  0.0194
  395THF     C2 8124   5.152   0.838   4.978  0.2106  0.2813 -0.2695
  395THF     C3 8125   4.996   0.687   4.921 -0.1122  0.4307  0.6130
  395THF     H4 8126   5.218   0.884   5.052  0.8113 -0.9213  1.8084
  395THF     H5 8127   5.086   0.908   4.936 -0.1666  0.4645  0.0679
  395THF     H6 8128   4.949   0.584   4.949  2.2564 -0.1761 -1.2480
  395THF     H7 8129   4.918   0.758   4.903  0.3159  0.6681  0.9327
  395THF     C8 8130   5.089   0.698   4.799 -0.6353  0.1943 -0.0213
  395THF     C9 8131   5.211   0.770   4.863 -0.0353  0.3796  0.3545
  395THF    H10 8132   5.050   0.758   4.723  1.3776 -1.4764  0.6494
  395THF    H11 8133   5.112   0.602   4.756  1.2035 -0.3053 -0.1063
  395THF    H12 8134   5.276   0.691   4.887 -0.1343 -0.8166 -0.3360
  395THF    H13 8135   5.260   0.837   4.791 -2.8280 -0.9382 -4.0986
  396THF     O1 8136   0.073   4.040   4.540  0.0258 -0.0917  0.3795
  396THF     C2 8137   0.178   4.009   4.630 -0.0367 -0.0669  0.5392
  396THF     C3 8138  -0.037   3.970   4.581  0.3739  0.8226 -0.3018
  396THF     H4 8139   0.167   4.076   4.721  0.3344 -0.9377  1.8805
  396THF     H5 8140   0.278   4.015   4.581 -0.2875  0.1308 -1.4512
  396THF     H6 8141  -0.082   4.038   4.655  2.1357  0.4538  1.3100
  396THF     H7 8142  -0.110   3.960   4.502 -2.4336 -0.4269 -0.3354
  396THF     C8 8143   0.013   3.838   4.638 -0.2413 -0.1576  0.1972
  396THF     C9 8144   0.161   3.860   4.653 -0.4315  0.1364 -0.1551
  396THF    H10 8145  -0.023   3.753   4.585  0.7625  0.4770  3.0550
  396THF    H11 8146  -0.038   3.808   4.730  0.3379 -0.2007  0.9186
  396THF    H12 8147   0.196   3.825   4.756  1.9000 -2.8103  0.6852
  396THF    H13 8148   0.213   3.810   4.573  1.0078 -0.5308 -0.3063
  397THF     O1 8149   1.212   3.120   3.292  0.0564  0.7675 -0.2236
  397THF     C2 8150   1.349   3.087   3.319 -0.0914 -0.0112  0.1923
  397THF     C3 8151   1.172   3.179   3.407 -0.0017 -0.7050 -0.6191
  397THF     H4 8152   1.403   3.179   3.301 -0.4982  2.4204 -0.6744
  397THF     H5 8153   1.395   3.011   3.252 -0.0537 -0.3800 -1.2050
  397THF     H6 8154   1.217   3.280   3.407  1.1209  3.3668  2.0501
  397THF     H7 8155   1.063   3.189   3.413 -1.5130  0.5709 -0.3926
  397THF     C8 8156   1.223   3.096   3.521  0.0981 -0.2006 -0.7021
  397THF     C9 8157   1.351   3.046   3.464  0.1545  0.5881  0.5415
  397THF    H10 8158   1.153   3.017   3.549 -1.3366 -0.6119 -1.5009
  397THF    H11 8159   1.243   3.161   3.601  1.2338  1.2778 -1.8819
  397THF    H12 8160   1.439   3.100   3.511  1.6181  0.0060  0.5464
  397THF    H13 8161   1.356   2.942   3.487 -0.9355  1.6325 -1.2929
  398THF     O1 8162   2.499   3.583   0.385 -0.4096  0.1464 -0.0226
  398THF     C2 8163   2.386   3.506   0.432  0.0976  0.3459  0.1262
  398THF     C3 8164   2.512   3.534   0.251  0.2650 -0.4011  0.8280
  398THF     H4 8165   2.353   3.532   0.534  0.9901 -0.6644 -0.0919
  398THF     H5 8166   2.413   3.397   0.436  0.7443  0.0161  2.5641
  398THF     H6 8167   2.571   3.605   0.186  0.1061 -0.6373 -1.1768
  398THF     H7 8168   2.558   3.435   0.263 -3.3603 -1.9169  0.0314
  398THF     C8 8169   2.372   3.524   0.195  0.0220 -0.6827  0.4220
  398THF     C9 8170   2.285   3.525   0.317 -0.9127  0.0909 -0.3321
  398THF    H10 8171   2.357   3.435   0.133 -3.4518 -0.1726  3.3692
  398THF    H11 8172   2.353   3.611   0.127  1.0698 -0.2102 -0.7830
  398THF    H12 8173   2.235   3.622   0.331  1.5627 -2.4322 -1.4690
  398THF    H13 8174   2.219   3.440   0.323 -0.8021 -0.6753  0.9852
  399THF     O1 8175   3.628   1.395   5.137  0.1555  0.2907 -0.1777
  399THF     C2 8176   3.617   1.266   5.201  0.4702  0.1124 -0.5906
  399THF     C3 8177   3.713   1.481   5.222  0.0613  0.6089  0.7412
  399THF     H4 8178   3.685   1.192   5.169 -1.0358 -0.7560  1.6016
  399THF     H5 8179   3.516   1.221   5.197  1.4810 -3.2765 -2.1547
  399THF     H6 8180   3.805   1.502   5.165 -0.7697 -0.0499 -1.0528
  399THF     H7 8181   3.652   1.572   5.238 -0.0281  3.0681 -0.0612
  399THF     C8 8182   3.745   1.404   5.343  0.3835  0.2217  0.2235
  399THF     C9 8183   3.643   1.291   5.346  0.1186  0.3262 -0.4207
  399THF    H10 8184   3.746   1.472   5.430  0.6084  1.0269  0.9488
  399THF    H11 8185   3.843   1.353   5.330  3.4042 -0.0201  1.5010
  399THF    H12 8186   3.689   1.196   5.388 -1.4651  1.7345  1.4683
  399THF    H13 8187   3.555   1.315   5.401  3.7647 -0.4850 -1.0451
  400THF     O1 8188   4.936   1.040   3.963 -0.4964  0.1087 -0.8197
  400THF     C2 8189   4.889   1.104   4.085 -0.2330  0.1567 -0.4765
  400THF     C3 8190   4.881   0.907   3.965 -0.0178  0.4751 -0.4786
  400THF     H4 8191   4.881   1.210   4.073 -0.7735 -2.8100  0.8647
  400THF     H5 8192   4.959   1.096   4.171  1.1829  0.2748  0.2257
  400THF     H6 8193   4.888   0.858   3.868 -0.6464 -0.4850  1.3382
  400THF     H7 8194   4.930   0.848   4.028  0.5505  2.8879 -0.6657
  400THF     C8 8195   4.736   0.925   4.013 -0.0165  0.7538 -0.0184
  400THF     C9 8196   4.743   1.039   4.110 -0.8179 -0.1623  0.6985
  400THF    H10 8197   4.708   0.833   4.062 -0.8382  0.7991 -1.3165
  400THF    H11 8198   4.670   0.936   3.924 -0.2458 -1.0172 -0.9850
  400THF    H12 8199   4.663   1.108   4.104  0.1725 -1.0237  1.4600
  400THF    H13 8200   4.751   0.998   4.208 -1.4606 -1.3656  1.8742
  401THF     O1 8201   3.116   3.904   2.611  0.2891 -0.3681  0.0981
  401THF     C2 8202   3.164   3.993   2.507 -0.1174 -0.4326 -0.9567
  401THF     C3 8203   3.228   3.872   2.691  0.2107  0.1954 -0.1010
  401THF     H4 8204   3.085   4.041   2.446 -1.5301  1.9105 -0.9410
  401THF     H5 8205   3.225   3.931   2.451  2.2502 -1.6318  1.6807
  401THF     H6 8206   3.192   3.811   2.773 -1.5278  3.2402 -1.7427
  401THF     H7 8207   3.301   3.818   2.634 -0.2515  1.7604  1.3241
  401THF     C8 8208   3.284   4.009   2.718 -0.0063 -0.0585  0.5900
  401THF     C9 8209   3.247   4.090   2.591 -0.2749  0.8061 -0.1245
  401THF    H10 8210   3.392   4.006   2.740 -1.4614  2.3372  1.6725
  401THF    H11 8211   3.241   4.054   2.801 -0.9888 -2.0735 -2.8514
  401THF    H12 8212   3.188   4.175   2.610  0.8240  0.7571  2.4685
  401THF    H13 8213   3.334   4.119   2.539 -3.1813  1.9952 -0.3822
  402THF     O1 8214   1.024   3.800   1.152  0.5918  0.4382  0.3278
  402THF     C2 8215   1.094   3.876   1.250 -0.5221  0.6323  0.8356
  402THF     C3 8216   0.907   3.755   1.218 -0.2928 -0.3099 -0.1770
  402THF     H4 8217   1.177   3.930   1.202 -1.5188 -2.2392 -0.1315
  402THF     H5 8218   1.139   3.800   1.316  0.3631  1.5201  4.1184
  402THF     H6 8219   0.821   3.748   1.149 -1.1771 -1.8941  0.3401
  402THF     H7 8220   0.914   3.654   1.249 -2.0097 -1.4787 -1.6691
  402THF     C8 8221   0.878   3.858   1.329 -0.2981 -0.4206  0.2128
  402THF     C9 8222   0.998   3.953   1.327  0.7898 -0.6018  0.4869
  402THF    H10 8223   0.866   3.820   1.429 -2.3273 -1.0673  0.0987
  402THF    H11 8224   0.794   3.920   1.293 -1.1075  1.8844 -2.0736
  402THF    H12 8225   0.967   4.035   1.269  1.3267 -0.9119  0.3526
  402THF    H13 8226   1.032   3.973   1.433  3.3657  0.4733 -0.0228
  403THF     O1 8227   4.292   1.736   1.611 -0.3377 -0.0389 -0.1301
  403THF     C2 8228   4.325   1.847   1.695 -0.0496  0.4380  0.3902
  403THF     C3 8229   4.222   1.643   1.691  0.0881  0.3589 -0.4761
  403THF     H4 8230   4.231   1.894   1.730 -0.9290 -2.0824 -0.4774
  403THF     H5 8231   4.388   1.924   1.660 -3.4394 -0.5208 -0.3308
  403THF     H6 8232   4.124   1.688   1.725 -0.5573 -0.3670  0.3598
  403THF     H7 8233   4.200   1.545   1.658 -2.6302  0.1893  1.4857
  403THF     C8 8234   4.310   1.633   1.815  0.6711  0.0260  0.4145
  403THF     C9 8235   4.387   1.765   1.816  0.5688  0.9097  0.1794
  403THF    H10 8236   4.359   1.533   1.804 -1.7423  2.0161  1.3957
  403THF    H11 8237   4.256   1.611   1.909 -0.7236  0.5042 -1.8734
  403THF    H12 8238   4.374   1.814   1.908 -0.8176  1.7971 -3.5342
  403THF    H13 8239   4.494   1.745   1.806  2.9523  0.3647 -0.9817
  404THF     O1 8240   1.171   0.434   2.006  0.0656  0.4736  0.0690
  404THF     C2 8241   1.259   0.494   2.099 -0.2679  0.3803 -0.1312
  404THF     C3 8242   1.137   0.313   2.068  0.7718  0.5689  0.2039
  404THF     H4 8243   1.209   0.546   2.186 -0.4586 -2.3737  1.3042
  404THF     H5 8244   1.322   0.566   2.043  0.8067 -0.9584  0.4931
  404THF     H6 8245   1.071   0.329   2.147  3.3369  1.9647 -0.3762
  404THF     H7 8246   1.103   0.244   1.997 -1.0832  2.8327  1.6752
  404THF     C8 8247   1.265   0.254   2.123  0.6354 -0.5755 -0.0665
  404THF     C9 8248   1.346   0.377   2.146 -0.0620 -0.6478  0.3930
  404THF    H10 8249   1.329   0.199   2.054 -0.4653 -1.1877 -1.2959
  404THF    H11 8250   1.236   0.187   2.204  4.0775  1.4614 -0.9950
  404THF    H12 8251   1.383   0.390   2.245 -0.3982  0.9382  1.7123
  404THF    H13 8252   1.434   0.378   2.076 -0.3072 -1.5081  0.9347
  405THF     O1 8253   4.485   4.297   3.739 -0.0942 -0.4967 -0.1410
  405THF     C2 8254   4.397   4.257   3.635  0.1030 -0.2904 -0.3234
  405THF     C3 8255   4.446   4.420   3.798  0.3017  0.5486 -0.4124
  405THF     H4 8256   4.347   4.158   3.633  0.4843  2.1771 -0.0283
  405THF     H5 8257   4.447   4.255   3.537  0.7378 -2.1960 -2.9984
  405THF     H6 8258   4.384   4.384   3.875  2.3403 -0.6655 -0.5435
  405THF     H7 8259   4.533   4.483   3.832 -0.6478  1.8898 -0.5102
  405THF     C8 8260   4.363   4.493   3.695 -0.0064  0.5968 -0.2881
  405THF     C9 8261   4.301   4.370   3.622 -0.2236 -0.6537  0.1412
  405THF    H10 8262   4.428   4.555   3.634  0.6539 -2.0570  0.5163
  405THF    H11 8263   4.288   4.570   3.738  2.2285  4.7816 -1.6593
  405THF    H12 8264   4.212   4.324   3.682 -0.5811 -1.0287  1.1526
  405THF    H13 8265   4.268   4.389   3.515  2.1984 -0.0610 -1.9567
  406THF     O1 8266   1.787   1.810   5.109  0.5524  0.0228  0.0785
  406THF     C2 8267   1.853   1.851   5.227  0.4621  0.1376  0.0129
  406THF     C3 8268   1.644   1.823   5.122  0.0503  0.5792  0.6907
  406THF     H4 8269   1.851   1.958   5.222 -0.5513 -0.4006  0.5469
  406THF     H5 8270   1.950   1.819   5.236 -2.8196 -1.9787  1.4528
  406THF     H6 8271   1.602   1.901   5.060  0.6273 -0.1493  1.3637
  406THF     H7 8272   1.601   1.736   5.068 -1.0091 -1.8043 -0.8948
  406THF     C8 8273   1.627   1.840   5.272 -0.4021  0.8516  0.5969
  406THF     C9 8274   1.762   1.804   5.333 -0.6005  0.2954 -0.2401
  406THF    H10 8275   1.554   1.768   5.308 -5.2731 -0.7929 -1.4783
  406THF    H11 8276   1.590   1.941   5.295  1.2717  0.9281 -0.0628
  406THF    H12 8277   1.777   1.850   5.429  0.7340 -1.0849 -0.6892
  406THF    H13 8278   1.768   1.694   5.353  0.1006  0.7896  0.3560
  407THF     O1 8279   4.474   1.821   2.835 -0.0815  0.0708  0.0002
  407THF     C2 8280   4.413   1.915   2.926  0.4461 -0.8148 -0.1341
  407THF     C3 8281   4.416   1.695   2.842 -0.0466  0.4775  0.1030
  407THF     H4 8282   4.362   1.985   2.858 -0.2797  1.4628  0.1732
  407THF     H5 8283   4.484   1.967   2.986  2.2253  0.4474  1.8756
  407THF     H6 8284   4.339   1.699   2.762 -1.0667 -1.3031 -2.1992
  407THF     H7 8285   4.486   1.618   2.832 -2.1068 -1.1822 -1.1135
  407THF     C8 8286   4.355   1.695   2.983 -0.3186  0.1438 -0.3908
  407THF     C9 8287   4.305   1.835   2.994  0.4312 -0.3659  0.6515
  407THF    H10 8288   4.416   1.655   3.066 -0.4796  0.1112 -0.6029
  407THF    H11 8289   4.270   1.634   2.978 -0.8955 -2.2870 -0.5251
  407THF    H12 8290   4.207   1.851   2.949  0.0712  0.6280 -1.4326
  407THF    H13 8291   4.291   1.867   3.099  1.1318 -0.4003 -0.9983
  408THF     O1 8292   1.579   1.500   5.496 -0.0971  0.0808 -0.0462
  408THF     C2 8293   1.510   1.431   5.391 -0.2078  0.2984  0.3875
  408THF     C3 8294   1.696   1.423   5.513  0.2151  0.2026 -0.3787
  408THF     H4 8295   1.415   1.479   5.353  0.3299  0.0723 -1.9627
  408THF     H5 8296   1.481   1.331   5.426 -1.3110  0.7028  1.0444
  408THF     H6 8297   1.761   1.475   5.575 -0.8801  0.3366  0.2148
  408THF     H7 8298   1.673   1.324   5.562 -2.5209  0.4678  3.3180
  408THF     C8 8299   1.736   1.386   5.368  0.5751  0.5679 -0.5499
  408THF     C9 8300   1.617   1.422   5.285 -0.0297  0.8779 -0.3977
  408THF    H10 8301   1.752   1.281   5.358 -1.8465 -0.5806 -1.8321
  408THF    H11 8302   1.830   1.426   5.328 -0.6267  1.5355 -1.2456
  408THF    H12 8303   1.626   1.518   5.229 -0.2368 -0.0738 -0.1438
  408THF    H13 8304   1.596   1.355   5.208  0.1757  0.0426  2.1393
  409THF     O1 8305   3.377   3.381   4.460 -0.4812  0.1266 -0.2694
  409THF     C2 8306   3.479   3.280   4.496 -0.3698  0.2255 -0.1264
  409THF     C3 8307   3.401   3.422   4.329  0.3850 -0.3683 -0.0907
  409THF     H4 8308   3.465   3.206   4.579  0.6996 -0.4092  1.5907
  409THF     H5 8309   3.559   3.344   4.515 -1.8245 -2.3387 -1.7426
  409THF     H6 8310   3.319   3.474   4.276  1.6240  0.1976 -0.5993
  409THF     H7 8311   3.489   3.490   4.320  2.3070 -1.0771 -0.0460
  409THF     C8 8312   3.450   3.297   4.255  0.7517 -0.6821  0.7189
  409THF     C9 8313   3.495   3.210   4.363  0.5462  0.1569  0.1153
  409THF    H10 8314   3.540   3.317   4.182  1.2947  2.3392  0.1507
  409THF    H11 8315   3.379   3.245   4.200  0.8108  2.2605 -0.3635
  409THF    H12 8316   3.459   3.107   4.352 -0.1794  0.6983  2.5862
  409THF    H13 8317   3.601   3.194   4.364  0.1913 -1.3999 -0.4800
  410THF     O1 8318   0.538   4.980   4.991  0.1924 -0.1856 -0.0688
  410THF     C2 8319   0.496   4.877   4.905  0.3675 -0.2410 -0.5500
  410THF     C3 8320   0.420   5.028   5.050  0.2608 -0.6518 -0.3180
  410THF     H4 8321   0.572   4.810   4.880  0.0355  0.6921  1.8519
  410THF     H5 8322   0.465   4.928   4.821 -1.4837  1.5349  2.2084
  410THF     H6 8323   0.441   5.084   5.143 -0.3638  0.3211 -0.1783
  410THF     H7 8324   0.378   5.106   4.987  2.3406 -1.8766 -0.5535
  410THF     C8 8325   0.322   4.919   5.066 -0.3391  0.0430  0.2693
  410THF     C9 8326   0.368   4.816   4.964 -0.6114  0.1032 -0.0609
  410THF    H10 8327   0.217   4.946   5.054  1.7361  0.5576 -2.3064
  410THF    H11 8328   0.319   4.879   5.173 -0.7515 -2.0805 -0.9497
  410THF    H12 8329   0.396   4.722   5.015 -1.6682 -2.1254 -1.8690
  410THF    H13 8330   0.293   4.783   4.891  0.3071  2.2840  1.4601
  411THF     O1 8331   2.349   5.081   3.952  0.1959  0.2270  0.0848
  411THF     C2 8332   2.393   5.116   3.822  0.4169 -0.0481 -0.3165
  411THF     C3 8333   2.339   4.941   3.961 -0.0618 -0.3333 -0.1773
  411THF     H4 8334   2.500   5.103   3.819 -0.4421  0.8174 -2.0388
  411THF     H5 8335   2.374   5.219   3.803  1.2359 -2.5440 -1.0371
  411THF     H6 8336   2.421   4.897   4.005 -1.2784  0.8103 -1.0563
  411THF     H7 8337   2.269   4.913   4.036 -0.3072  3.2705 -2.1210
  411THF     C8 8338   2.317   4.887   3.821  0.3148 -0.1200  0.0724
  411THF     C9 8339   2.314   5.015   3.739  0.7477  0.7289  0.3936
  411THF    H10 8340   2.224   4.826   3.807 -0.0008 -0.0748 -1.0828
  411THF    H11 8341   2.409   4.837   3.787 -2.4587  1.6189 -0.8775
  411THF    H12 8342   2.351   4.991   3.637  3.0690 -1.1946  0.2762
  411THF    H13 8343   2.215   5.054   3.729  0.1528  0.7148  1.9647
  412THF     O1 8344   5.072   2.383   1.806  0.0167 -0.9054 -0.0073
  412THF     C2 8345   5.212   2.396   1.802  0.5642 -1.1292  0.4512
  412THF     C3 8346   5.039   2.463   1.925 -0.3664 -0.2524  0.6677
  412THF     H4 8347   5.255   2.351   1.709 -1.3427  1.2335 -2.9174
  412THF     H5 8348   5.260   2.335   1.876 -2.7878 -0.1246  1.0461
  412THF     H6 8349   4.935   2.489   1.942 -1.2386  2.6038 -1.4236
  412THF     H7 8350   5.079   2.410   2.012  0.2036  1.8357  1.3779
  412THF     C8 8351   5.121   2.586   1.909 -0.1440 -0.9668  0.1106
  412THF     C9 8352   5.237   2.549   1.818  0.3163 -0.2211  0.2407
  412THF    H10 8353   5.160   2.623   2.004  3.0533 -1.9516  0.1995
  412THF    H11 8354   5.056   2.669   1.870 -1.7284  2.0400 -1.1881
  412THF    H12 8355   5.234   2.604   1.732  1.9068  4.0444  1.4796
  412THF    H13 8356   5.330   2.568   1.868  0.5892 -0.5942  0.6348
  413THF     O1 8357   4.398   3.534   2.620  0.2052 -0.5003  0.0025
  413THF     C2 8358   4.418   3.540   2.483  0.0634 -0.2041  0.5566
  413THF     C3 8359   4.516   3.475   2.676  0.0673 -0.4998 -0.1458
  413THF     H4 8360   4.470   3.628   2.453 -0.5514  0.8971 -0.5665
  413THF     H5 8361   4.321   3.529   2.431  0.3988  1.3048 -2.1980
  413THF     H6 8362   4.581   3.548   2.729 -0.5188  0.0614 -0.1570
  413THF     H7 8363   4.487   3.393   2.743  0.3821 -3.0588  0.8286
  413THF     C8 8364   4.596   3.411   2.559 -0.0479 -0.4569 -0.0387
  413THF     C9 8365   4.503   3.420   2.443 -0.3774  0.0009 -0.0639
  413THF    H10 8366   4.628   3.316   2.593 -1.2435  1.2953  1.5078
  413THF    H11 8367   4.682   3.473   2.536 -0.9922 -0.1896  0.9320
  413THF    H12 8368   4.546   3.433   2.343 -3.2250 -1.3207 -0.5464
  413THF    H13 8369   4.437   3.332   2.442  0.7062  0.6857 -0.7397
  414THF     O1 8370   4.601   2.682   3.890  0.4692 -0.0957 -0.6680
  414THF     C2 8371   4.641   2.665   3.748 -0.4447 -0.1244 -0.0284
  414THF     C3 8372   4.502   2.592   3.925  0.3547  0.0301  0.3514
  414THF     H4 8373   4.743   2.631   3.731 -0.3555  0.2391  1.1812
  414THF     H5 8374   4.620   2.749   3.684  0.5566 -0.8548  1.8912
  414THF     H6 8375   4.529   2.503   3.975 -0.3556 -0.3789 -1.5671
  414THF     H7 8376   4.434   2.641   3.998  1.0664  2.5907  2.5255
  414THF     C8 8377   4.433   2.564   3.794  0.5928  0.1073 -0.0845
  414THF     C9 8378   4.552   2.555   3.698  0.7270  0.3044 -0.1916
  414THF    H10 8379   4.361   2.641   3.763 -1.5372  0.2580 -0.5110
  414THF    H11 8380   4.378   2.469   3.797 -1.2042 -0.9055 -1.1965
  414THF    H12 8381   4.612   2.466   3.705  0.1327  1.4476  1.5603
  414THF    H13 8382   4.505   2.561   3.601  4.1606  2.3539  0.6440
  415THF     O1 8383   2.383   2.466   1.572 -0.4041  0.2193 -0.2299
  415THF     C2 8384   2.396   2.600   1.546 -0.2078 -0.0234 -0.1194
  415THF     C3 8385   2.372   2.454   1.716  0.2274 -0.5801  0.5266
  415THF     H4 8386   2.374   2.606   1.440  3.1523  0.9275 -3.5444
  415THF     H5 8387   2.497   2.619   1.569 -2.0658 -0.1949 -0.8517
  415THF     H6 8388   2.318   2.367   1.747  3.3285  1.5034  1.0244
  415THF     H7 8389   2.476   2.455   1.751 -2.2401  0.5280 -1.7268
  415THF     C8 8390   2.295   2.578   1.764 -0.6948  0.6319  0.2322
  415THF     C9 8391   2.300   2.668   1.641  0.0116  0.1489  0.4184
  415THF    H10 8392   2.335   2.621   1.856  1.1650  1.1333  0.0851
  415THF    H11 8393   2.192   2.549   1.775  0.9080  0.3953  2.5280
  415THF    H12 8394   2.199   2.678   1.593  1.2939  0.6326  0.4913
  415THF    H13 8395   2.331   2.769   1.674 -0.6586  1.2779  2.4617
  416THF     O1 8396   0.138   0.709   1.972  0.0159 -0.1565  0.3119
  416THF     C2 8397   0.034   0.613   1.947 -0.1408  0.0231  0.1854
  416THF     C3 8398   0.156   0.711   2.115 -0.2207 -0.4990 -0.5486
  416THF     H4 8399   0.055   0.568   1.850 -1.2137 -0.2967 -0.3959
  416THF     H5 8400  -0.064   0.661   1.933  0.1476  1.4305  0.6424
  416THF     H6 8401   0.256   0.741   2.147  2.0468  0.1406 -0.6747
  416THF     H7 8402   0.083   0.776   2.158  0.3855  0.2111 -1.7489
  416THF     C8 8403   0.134   0.568   2.161 -0.5737 -0.6238 -0.5579
  416THF     C9 8404   0.032   0.510   2.062  0.2320 -0.5331  0.3244
  416THF    H10 8405   0.095   0.567   2.268  1.3040  0.1126  3.5015
  416THF    H11 8406   0.219   0.504   2.153 -1.0558  2.3884 -0.8928
  416THF    H12 8407   0.081   0.420   2.024 -0.2246  0.4205 -1.2628
  416THF    H13 8408  -0.059   0.467   2.098  1.4281  0.2653  3.5265
  417THF     O1 8409   1.867   3.064   2.938  0.6255  0.3158 -0.0045
  417THF     C2 8410   1.888   3.197   2.894  0.7550 -0.1785  0.2386
  417THF     C3 8411   1.976   2.986   2.911 -0.1501 -0.2418 -0.3042
  417THF     H4 8412   1.952   3.236   2.973  1.0248 -0.4719  1.6118
  417THF     H5 8413   1.802   3.260   2.893 -1.1480  1.2087 -0.6755
  417THF     H6 8414   2.047   2.979   2.998  0.0634 -0.0663  1.9446
  417THF     H7 8415   1.949   2.886   2.885 -0.1076 -0.7639 -1.3997
  417THF     C8 8416   2.054   3.055   2.805  0.0924  0.3184 -0.2766
  417THF     C9 8417   1.962   3.174   2.763  0.2554 -0.4364  0.9523
  417THF    H10 8418   2.078   2.996   2.721  1.1298  0.8584 -0.0553
  417THF    H11 8419   2.142   3.099   2.848 -1.4484  1.4540  0.5677
  417THF    H12 8420   2.027   3.268   2.745  1.1541 -0.2012 -2.0330
  417THF    H13 8421   1.910   3.131   2.682  2.2585 -0.8261  0.2160
  418THF     O1 8422   3.250   2.852   3.987  0.0886 -0.2556  0.3198
  418THF     C2 8423   3.340   2.887   4.091  0.4923 -1.3158 -1.0684
  418THF     C3 8424   3.137   2.939   4.002  0.1096  0.0056 -0.0567
  418THF     H4 8425   3.396   2.975   4.062 -0.8015  1.7560 -0.0665
  418THF     H5 8426   3.402   2.794   4.115 -2.4648 -2.8466  1.3116
  418THF     H6 8427   3.151   3.042   3.961  0.5738 -0.1565 -2.8145
  418THF     H7 8428   3.048   2.891   3.957  0.9068 -0.5103  2.0066
  418THF     C8 8429   3.108   2.951   4.155 -0.3468 -0.9278  0.2527
  418THF     C9 8430   3.248   2.924   4.210  0.0805 -0.4214  0.3244
  418THF    H10 8431   3.030   2.885   4.183 -1.7999  1.2108  0.6047
  418THF    H11 8432   3.078   3.055   4.175  0.9436 -0.9713 -0.6938
  418THF    H12 8433   3.278   3.020   4.255  1.8302 -1.5836 -1.9255
  418THF    H13 8434   3.241   2.852   4.280 -0.0393 -0.5783  1.0987
  419THF     O1 8435   4.854   3.223   0.618  1.0079 -0.6922 -0.4745
  419THF     C2 8436   4.812   3.118   0.703  0.1005  0.2557  0.5362
  419THF     C3 8437   4.845   3.347   0.689  0.0499 -0.4160  0.1902
  419THF     H4 8438   4.891   3.102   0.786 -1.2386  1.7406  2.1897
  419THF     H5 8439   4.788   3.026   0.651 -0.4643  0.8021  3.3365
  419THF     H6 8440   4.938   3.356   0.752  2.1683  1.9356 -0.5375
  419THF     H7 8441   4.820   3.436   0.624 -3.0526  3.8836 -1.1793
  419THF     C8 8442   4.730   3.322   0.783  0.3523  0.3194  0.5348
  419THF     C9 8443   4.691   3.184   0.771  0.0560  0.3492  0.4939
  419THF    H10 8444   4.646   3.381   0.772  1.9433 -1.8020  2.7108
  419THF    H11 8445   4.758   3.350   0.885  1.3050  0.8294 -2.2504
  419THF    H12 8446   4.655   3.132   0.861 -1.4225  1.8691  0.0489
  419THF    H13 8447   4.608   3.174   0.706  3.8336  4.2880  0.4750
  420THF     O1 8448   1.791   1.894   4.666 -0.8916 -0.3139  0.0093
  420THF     C2 8449   1.694   1.987   4.607 -0.2932 -0.0161 -0.3071
  420THF     C3 8450   1.851   1.948   4.786 -0.2682  0.0405 -0.6084
  420THF     H4 8451   1.592   1.949   4.603 -1.1114 -0.2958  1.3095
  420THF     H5 8452   1.726   2.028   4.512 -1.7470 -0.5883  0.1148
  420THF     H6 8453   1.805   1.888   4.860  0.0873  0.1785 -2.0346
  420THF     H7 8454   1.960   1.923   4.800 -0.9988 -1.7968  4.1344
  420THF     C8 8455   1.825   2.097   4.785 -0.2021 -0.0981 -0.3018
  420THF     C9 8456   1.692   2.101   4.711 -0.2333  0.5441  0.3770
  420THF    H10 8457   1.893   2.146   4.723 -1.0559  0.0526  0.9658
  420THF    H11 8458   1.826   2.136   4.889  2.8853  1.1686 -1.4213
  420THF    H12 8459   1.606   2.075   4.776 -0.3300 -1.6728  2.9799
  420THF    H13 8460   1.669   2.203   4.677 -1.8857  1.9373 -0.8093
  421THF     O1 8461   1.953   2.890   3.781  0.1610 -0.1702  0.3661
  421THF     C2 8462   1.926   2.749   3.775  0.0265  0.1405 -0.4017
  421THF     C3 8463   1.836   2.961   3.809  0.3449  0.4385  0.0540
  421THF     H4 8464   2.011   2.685   3.791 -0.1663 -1.6012  0.4682
  421THF     H5 8465   1.893   2.718   3.670 -3.6448  0.0948 -1.4342
  421THF     H6 8466   1.848   3.016   3.902  2.3212  1.8041  1.9490
  421THF     H7 8467   1.811   3.044   3.733 -0.9336 -0.6979  0.1304
  421THF     C8 8468   1.722   2.854   3.828  0.1995  0.3276  0.1198
  421THF     C9 8469   1.799   2.729   3.862 -0.8930 -0.0848 -0.2269
  421THF    H10 8470   1.668   2.829   3.736  0.5376 -1.3911  0.1410
  421THF    H11 8471   1.649   2.876   3.907 -1.0153 -0.2793  0.3169
  421THF    H12 8472   1.825   2.726   3.967 -0.6744 -1.4492 -0.0846
  421THF    H13 8473   1.744   2.636   3.844 -0.9719 -0.7267 -0.0246
  422THF     O1 8474   0.288   4.628   0.297  0.0311 -0.3522 -0.1098
  422THF     C2 8475   0.364   4.590   0.412 -0.1221  0.2856  0.4486
  422THF     C3 8476   0.185   4.533   0.275 -0.4268  0.9620 -0.0332
  422THF     H4 8477   0.339   4.642   0.499  2.6602  0.4398  0.7052
  422THF     H5 8478   0.470   4.598   0.394  1.9326 -0.2114  1.8611
  422THF     H6 8479   0.118   4.555   0.355 -0.2980 -0.0861  0.1141
  422THF     H7 8480   0.136   4.522   0.178 -0.7744 -0.3423  0.4650
  422THF     C8 8481   0.261   4.397   0.309 -0.4823 -1.3467  0.5766
  422THF     C9 8482   0.346   4.440   0.431 -0.8446  0.4606 -0.2288
  422THF    H10 8483   0.328   4.371   0.231 -0.7205 -0.7080 -1.8552
  422THF    H11 8484   0.192   4.316   0.324 -2.7868  1.6765  1.8517
  422THF    H12 8485   0.290   4.413   0.514  0.5824  0.6687 -0.3569
  422THF    H13 8486   0.433   4.377   0.443  0.0226  1.3792 -0.6567
  423THF     O1 8487   3.405   4.476   4.131 -0.1201 -0.0418  0.7058
  423THF     C2 8488   3.277   4.534   4.162 -0.2111 -0.3685  0.1618
  423THF     C3 8489   3.457   4.408   4.248  0.1676  0.5442 -0.2167
  423THF     H4 8490   3.190   4.466   4.148  1.6273 -1.2353 -0.4862
  423THF     H5 8491   3.251   4.630   4.118 -0.3503 -0.8801  0.5882
  423THF     H6 8492   3.450   4.303   4.236  2.9709 -0.9356  0.7310
  423THF     H7 8493   3.560   4.439   4.265 -0.4551  1.3106  1.8489
  423THF     C8 8494   3.363   4.443   4.368 -0.0616  0.7736  1.0018
  423THF     C9 8495   3.276   4.558   4.314  0.0499 -0.5037 -0.4898
  423THF    H10 8496   3.407   4.454   4.468 -1.5411 -0.7136  0.1345
  423THF    H11 8497   3.292   4.351   4.379  0.5031 -0.8649  0.9592
  423THF    H12 8498   3.172   4.556   4.349 -0.4137  1.0870 -4.1831
  423THF    H13 8499   3.318   4.651   4.343 -3.4165 -0.4093  0.8663
  424THF     O1 8500   2.299   4.367   5.107 -0.0864  0.1701  0.3624
  424THF     C2 8501   2.353   4.259   5.183  0.0798 -0.0936 -0.3584
  424THF     C3 8502   2.285   4.477   5.194  0.1278  0.4661 -0.1676
  424THF     H4 8503   2.459   4.266   5.201 -1.8840  1.6152 -1.0856
  424THF     H5 8504   2.356   4.157   5.135  0.2211 -0.3236 -1.6056
  424THF     H6 8505   2.380   4.540   5.209  1.1942  1.8541  1.5314
  424THF     H7 8506   2.211   4.546   5.159  1.0099  1.7052 -3.4917
  424THF     C8 8507   2.241   4.413   5.328  1.0211 -0.0332 -0.5476
  424THF     C9 8508   2.271   4.259   5.315 -0.5222 -0.0403 -0.4620
  424THF    H10 8509   2.139   4.441   5.350  2.1825  0.0846 -1.5686
  424THF    H11 8510   2.299   4.462   5.412  0.2667  2.4897 -1.4583
  424THF    H12 8511   2.340   4.216   5.392  0.6108 -3.0511 -1.6101
  424THF    H13 8512   2.186   4.202   5.325 -0.4530 -1.5498 -0.6283
  425THF     O1 8513   3.790   0.350   2.532 -0.1839 -0.0677 -0.5713
  425THF     C2 8514   3.745   0.470   2.594 -0.1847 -0.0041  0.9050
  425THF     C3 8515   3.877   0.288   2.632 -0.8256  0.3791 -0.1089
  425THF     H4 8516   3.673   0.444   2.665 -1.0946 -0.0462 -3.0427
  425THF     H5 8517   3.698   0.524   2.509 -0.0094  0.1276 -0.0903
  425THF     H6 8518   3.802   0.247   2.705 -0.3511 -2.0461  0.2085
  425THF     H7 8519   3.948   0.207   2.599  0.6410 -0.7820 -0.2228
  425THF     C8 8520   3.953   0.407   2.701 -0.6080  0.3939  0.5011
  425THF     C9 8521   3.871   0.531   2.667 -0.5416  0.0323 -0.6601
  425THF    H10 8522   4.058   0.411   2.676 -1.8682 -0.2997 -2.4388
  425THF    H11 8523   3.956   0.384   2.804 -0.2277  2.3932  0.8380
  425THF    H12 8524   3.845   0.603   2.744 -2.5774 -2.0063  0.8310
  425THF    H13 8525   3.924   0.587   2.593  0.4322  0.1270 -1.2691
  426THF     O1 8526   5.135   3.065   4.444  0.0554 -0.1147 -0.0455
  426THF     C2 8527   5.211   3.031   4.331 -0.0638  0.3748  0.1016
  426THF     C3 8528   5.134   2.956   4.541 -0.0609 -0.3579  0.3846
  426THF     H4 8529   5.316   3.062   4.343  0.0653 -1.8338 -0.2923
  426THF     H5 8530   5.178   3.080   4.245  0.5393  1.3668 -1.9677
  426THF     H6 8531   5.190   2.971   4.632  1.2502 -1.1100 -0.7914
  426THF     H7 8532   5.030   2.942   4.562  0.2818  2.8202  1.5068
  426THF     C8 8533   5.186   2.838   4.464 -0.2203 -0.0722  0.2406
  426THF     C9 8534   5.194   2.883   4.316  0.6981  0.3785  0.0724
  426THF    H10 8535   5.131   2.746   4.476  1.4120  2.4437 -0.4200
  426THF    H11 8536   5.292   2.824   4.493 -0.4708 -0.2813  0.4049
  426THF    H12 8537   5.274   2.822   4.255  2.2066  0.1609 -1.2733
  426THF    H13 8538   5.102   2.861   4.272 -0.4155  2.8181  1.2550
  427THF     O1 8539   4.212   1.503   1.253 -0.1408 -0.2385  0.0579
  427THF     C2 8540   4.334   1.580   1.239 -0.0196 -0.0006 -0.6218
  427THF     C3 8541   4.182   1.434   1.132  0.5660 -0.3678 -0.2820
  427THF     H4 8542   4.425   1.521   1.250  1.2559 -0.7362  0.1730
  427THF     H5 8543   4.336   1.655   1.321 -2.0335 -0.9777 -1.4698
  427THF     H6 8544   4.237   1.340   1.133  1.7743  0.8566 -2.1197
  427THF     H7 8545   4.073   1.417   1.124 -0.3222  0.4284  0.1466
  427THF     C8 8546   4.229   1.535   1.023  0.5501  0.0320 -0.8381
  427THF     C9 8547   4.316   1.636   1.096 -0.0192  0.2097 -0.2498
  427THF    H10 8548   4.145   1.581   0.975  2.4116  1.8110 -2.3496
  427THF    H11 8549   4.274   1.475   0.949 -0.7437 -0.9169  0.2313
  427THF    H12 8550   4.406   1.645   1.045 -2.1817  0.2310  0.4087
  427THF    H13 8551   4.260   1.734   1.094 -0.8924 -1.5054  2.7501
  428THF     O1 8552   5.378   2.708   3.049  0.0329  0.0286  0.1365
  428THF     C2 8553   5.444   2.655   3.158 -0.9926  0.5821  0.0934
  428THF     C3 8554   5.435   2.663   2.932 -0.4926 -0.3853 -0.0114
  428THF     H4 8555   5.413   2.552   3.173 -0.5322  0.1009  1.6525
  428THF     H5 8556   5.421   2.709   3.248 -2.3134  1.6049 -0.0049
  428THF     H6 8557   5.404   2.555   2.914 -0.4945 -0.1510  0.5770
  428THF     H7 8558   5.427   2.727   2.844 -2.3507  0.5664 -1.2215
  428THF     C8 8559   5.583   2.671   2.977 -0.0742  0.3270  0.5811
  428THF     C9 8560   5.586   2.671   3.123 -0.5578  0.0652  0.0939
  428THF    H10 8561   5.628   2.763   2.942 -1.5559 -0.1479  0.7548
  428THF    H11 8562   5.637   2.588   2.934 -2.0896 -2.2113 -0.6208
  428THF    H12 8563   5.651   2.598   3.165 -1.8930  0.1141  0.5085
  428THF    H13 8564   5.618   2.769   3.160 -1.8670  0.1136  0.2944
  429THF     O1 8565   4.744   5.474   4.406  0.0046 -0.5998 -0.1882
  429THF     C2 8566   4.789   5.342   4.423  0.6171 -0.3286 -0.6825
  429THF     C3 8567   4.814   5.534   4.298 -1.1112 -0.0078  0.5417
  429THF     H4 8568   4.736   5.277   4.354  1.8844  0.0874  0.5760
  429THF     H5 8569   4.772   5.300   4.524 -2.4835 -1.7133  0.1171
  429THF     H6 8570   4.760   5.487   4.209 -3.0649 -1.4659 -2.9198
  429THF     H7 8571   4.797   5.640   4.302 -1.9081  2.1166  0.6272
  429THF     C8 8572   4.958   5.482   4.307 -0.5319 -0.2108  1.1774
  429THF     C9 8573   4.938   5.352   4.389  1.3962  0.4269  0.7591
  429THF    H10 8574   5.000   5.566   4.363 -0.6235 -0.1064  0.1475
  429THF    H11 8575   5.004   5.465   4.208 -0.7463  0.8494 -1.2078
  429THF    H12 8576   4.977   5.262   4.340  1.0326  2.0455  0.0045
  429THF    H13 8577   5.003   5.347   4.479  1.6319 -1.2441  1.6419
  430THF     O1 8578   0.652   0.193   0.764 -0.1351  0.2185  0.0811
  430THF     C2 8579   0.662   0.275   0.885  0.3137  0.0981 -0.1116
  430THF     C3 8580   0.619   0.055   0.804  1.5826 -0.0431  0.1572
  430THF     H4 8581   0.566   0.286   0.926 -1.7154  0.6910  0.4265
  430THF     H5 8582   0.704   0.370   0.867 -2.3766  0.1868  1.8734
  430THF     H6 8583   0.504   0.059   0.820 -4.1411  2.0452 -0.0841
  430THF     H7 8584   0.651  -0.018   0.730 -1.0027 -1.0282 -0.5215
  430THF     C8 8585   0.693   0.048   0.944  0.1584 -0.3559  0.2597
  430THF     C9 8586   0.746   0.186   0.975  0.2688 -0.1980  0.0112
  430THF    H10 8587   0.766  -0.033   0.941 -1.0427  1.4050  1.8569
  430THF    H11 8588   0.630   0.018   1.022  4.2202 -1.1909 -1.1761
  430THF    H12 8589   0.730   0.207   1.080  0.3806  1.1036 -0.9363
  430THF    H13 8590   0.856   0.194   0.958  0.6285  0.7974  1.7491
  431THF     O1 8591   4.372   1.829   3.836 -0.3855 -0.3382 -0.7665
  431THF     C2 8592   4.380   1.952   3.765 -0.3929 -0.1353 -0.6291
  431THF     C3 8593   4.513   1.788   3.845  0.0907 -0.2245  0.2284
  431THF     H4 8594   4.404   2.032   3.831  0.0124  1.1699 -0.4144
  431THF     H5 8595   4.288   1.983   3.724 -0.1229  0.8979  3.3532
  431THF     H6 8596   4.562   1.806   3.944  0.2644 -0.2013  3.3667
  431THF     H7 8597   4.523   1.685   3.849  2.7108  1.6887  0.5723
  431THF     C8 8598   4.583   1.842   3.724 -0.2016 -0.0020 -0.3416
  431THF     C9 8599   4.482   1.929   3.659  0.7860 -0.2449  0.7574
  431THF    H10 8600   4.613   1.756   3.667  0.9458 -0.6813  2.0842
  431THF    H11 8601   4.669   1.896   3.764  0.1486 -1.6882  1.1848
  431THF    H12 8602   4.507   2.028   3.621 -0.4187  1.4746 -0.7539
  431THF    H13 8603   4.435   1.865   3.585 -0.7321 -0.2002 -1.6621
  432THF     O1 8604   3.488   0.785   0.628 -0.1091 -0.2978  0.0704
  432THF     C2 8605   3.469   0.794   0.486 -0.0264 -0.1196  0.0956
  432THF     C3 8606   3.628   0.788   0.656  0.1090 -0.4197  0.6086
  432THF     H4 8607   3.375   0.851   0.467  1.7409 -0.4724 -0.6030
  432THF     H5 8608   3.462   0.697   0.437 -0.3548 -2.2092  2.0499
  432THF     H6 8609   3.641   0.798   0.759  0.8859 -1.5693 -0.3977
  432THF     H7 8610   3.675   0.696   0.630 -0.1416  1.4533  0.8956
  432THF     C8 8611   3.672   0.900   0.561 -0.0434  0.0081  0.5905
  432THF     C9 8612   3.578   0.874   0.437 -0.8403 -0.1549  0.3474
  432THF    H10 8613   3.776   0.884   0.531  1.4169  0.8362 -1.4219
  432THF    H11 8614   3.659   0.995   0.601 -2.0820 -2.7385 -0.6891
  432THF    H12 8615   3.547   0.967   0.383  2.1646 -1.3422  1.1178
  432THF    H13 8616   3.628   0.811   0.358  1.3212  0.8865 -1.9649
  433THF     O1 8617   0.518   4.764   4.525  0.1409 -0.0705 -1.2277
  433THF     C2 8618   0.412   4.670   4.534 -0.0176  0.3869  0.4898
  433THF     C3 8619   0.597   4.724   4.414 -0.1630  0.3806  0.0576
  433THF     H4 8620   0.337   4.689   4.459 -3.1421 -2.6881 -1.4175
  433THF     H5 8621   0.371   4.686   4.632  0.4286 -0.0390  0.5431
  433THF     H6 8622   0.564   4.761   4.318  1.1304 -0.0505 -2.2400
  433THF     H7 8623   0.697   4.772   4.429 -3.2121  1.5138 -1.1256
  433THF     C8 8624   0.601   4.574   4.426  0.7209  0.1369  0.5369
  433THF     C9 8625   0.495   4.539   4.525 -0.0916  0.1546 -0.1458
  433THF    H10 8626   0.703   4.535   4.457  3.2142  0.8506  0.7235
  433THF    H11 8627   0.563   4.546   4.335 -0.3649  1.2325  3.0334
  433THF    H12 8628   0.432   4.457   4.487 -1.5313 -3.4140  0.9444
  433THF    H13 8629   0.539   4.527   4.623 -1.6694  4.6610 -2.1894
  434THF     O1 8630   2.683   2.261   4.768 -0.6093 -0.6221  0.8662
  434THF     C2 8631   2.682   2.140   4.696 -0.0978  0.2824  1.1150
  434THF     C3 8632   2.815   2.290   4.814 -0.3762  0.7099 -0.2091
  434THF     H4 8633   2.591   2.137   4.631  2.3085  1.3186 -3.2565
  434THF     H5 8634   2.669   2.060   4.767 -2.7844 -0.7344 -1.5426
  434THF     H6 8635   2.827   2.379   4.870  1.6001 -5.3126 -1.3761
  434THF     H7 8636   2.838   2.213   4.894 -1.1857 -2.4816 -1.4179
  434THF     C8 8637   2.900   2.251   4.691  0.1537 -0.1791  0.1201
  434THF     C9 8638   2.815   2.144   4.619  0.4023  0.6369 -0.0016
  434THF    H10 8639   2.997   2.204   4.713 -1.4902 -1.2729  0.6034
  434THF    H11 8640   2.921   2.337   4.631  2.3378  2.8106  0.6103
  434THF    H12 8641   2.813   2.166   4.509  2.8835  2.1164  2.2187
  434THF    H13 8642   2.853   2.042   4.639  0.3104  2.6108  1.2850
  435THF     O1 8643   4.367   3.346   5.447 -0.2369 -0.1502 -0.6390
  435THF     C2 8644   4.495   3.288   5.422 -0.4486  0.7356  0.2924
  435THF     C3 8645   4.313   3.264   5.550  0.1072 -0.3128 -0.4977
  435THF     H4 8646   4.553   3.358   5.360 -0.1821 -1.9242 -1.0673
  435THF     H5 8647   4.486   3.197   5.374 -2.2032  1.4374  1.1302
  435THF     H6 8648   4.230   3.316   5.600  0.5777  1.7053 -0.4810
  435THF     H7 8649   4.287   3.171   5.513  2.5399  1.0794  0.2856
  435THF     C8 8650   4.431   3.236   5.637 -0.1751 -0.3686  0.1852
  435THF     C9 8651   4.557   3.272   5.558  0.2945 -0.3075  0.1526
  435THF    H10 8652   4.431   3.127   5.659 -3.5072 -3.1388  2.8813
  435THF    H11 8653   4.427   3.277   5.735  0.1507 -0.6794 -0.5901
  435THF    H12 8654   4.590   3.369   5.594 -0.1506 -1.2770 -1.4354
  435THF    H13 8655   4.642   3.199   5.560 -1.0908 -0.8602 -1.7417
  436THF     O1 8656   2.037   5.498   5.447 -0.3834 -0.2953  0.2880
  436THF     C2 8657   2.103   5.416   5.349  0.0516  0.1102 -0.0848
  436THF     C3 8658   2.102   5.624   5.455 -0.4650 -0.5344 -0.3613
  436THF     H4 8659   2.026   5.360   5.298  0.6948 -1.8497  1.1459
  436THF     H5 8660   2.176   5.343   5.390  2.4953 -2.1475  1.8430
  436THF     H6 8661   2.040   5.703   5.506 -0.7153  0.9943 -1.3073
  436THF     H7 8662   2.192   5.614   5.514 -1.2880 -0.0110  1.1800
  436THF     C8 8663   2.147   5.649   5.314  0.1902 -0.2885  0.0889
  436THF     C9 8664   2.172   5.513   5.257  0.8426 -0.1963 -0.3572
  436THF    H10 8665   2.232   5.713   5.313  1.1167 -2.4077 -1.3484
  436THF    H11 8666   2.062   5.694   5.247 -2.3932  1.0515 -0.9314
  436THF    H12 8667   2.118   5.496   5.165 -1.5663 -1.8758  2.7069
  436THF    H13 8668   2.283   5.492   5.251  1.2688  0.5569 -1.8372
  437THF     O1 8669   3.619   2.133   0.378 -0.3550 -0.2363 -0.2089
  437THF     C2 8670   3.668   2.030   0.311 -0.0207  0.6869 -0.1226
  437THF     C3 8671   3.638   2.103   0.518 -0.1319  0.4668  0.0044
  437THF     H4 8672   3.689   2.048   0.207 -0.2167  1.2970  3.6195
  437THF     H5 8673   3.594   1.955   0.320  2.9322  1.1382  1.1331
  437THF     H6 8674   3.619   2.196   0.571  1.1137  0.7043  0.2535
  437THF     H7 8675   3.568   2.026   0.542  2.8527  4.6161 -0.1179
  437THF     C8 8676   3.785   2.055   0.514 -0.5615  0.1000 -0.0840
  437THF     C9 8677   3.798   1.981   0.380 -0.0424 -0.1312  0.1553
  437THF    H10 8678   3.807   1.989   0.601  0.9673 -0.3853 -1.9134
  437THF    H11 8679   3.848   2.142   0.521 -0.3799 -1.0098  0.1239
  437THF    H12 8680   3.888   2.015   0.322 -1.9202  0.0850  0.7254
  437THF    H13 8681   3.803   1.869   0.396 -1.8607 -3.1378  0.7912
  438THF     O1 8682   1.832   2.180   4.053  0.7897  0.2249 -0.7030
  438THF     C2 8683   1.770   2.196   3.931  0.2395  0.1506  0.0736
  438THF     C3 8684   1.966   2.234   4.048  0.4334  0.0647 -0.2142
  438THF     H4 8685   1.739   2.301   3.914  0.4075  1.5001 -3.7870
  438THF     H5 8686   1.686   2.127   3.926 -0.1402  0.2089  0.8441
  438THF     H6 8687   1.955   2.343   4.059  1.0618 -1.4442  0.1258
  438THF     H7 8688   2.027   2.198   4.126 -0.2362  0.2450 -0.0572
  438THF     C8 8689   2.009   2.188   3.907 -0.6445 -0.5817 -0.4280
  438THF     C9 8690   1.880   2.162   3.825 -0.9278  0.2440  0.0291
  438THF    H10 8691   2.063   2.093   3.905 -1.5965  0.7899  1.1136
  438THF    H11 8692   2.077   2.255   3.863  1.3871 -0.3773  1.2852
  438THF    H12 8693   1.891   2.220   3.739  0.1212 -2.9289  2.1313
  438THF    H13 8694   1.887   2.054   3.797 -0.8434  2.7488  2.5844
  439THF     O1 8695   0.157   2.910   4.758 -0.2116  0.0718  0.3133
  439THF     C2 8696   0.137   2.836   4.878  0.5491 -0.1283 -0.2709
  439THF     C3 8697   0.047   2.996   4.726 -0.3009  0.0638 -0.1848
  439THF     H4 8698   0.225   2.823   4.936  0.1702 -3.2369 -1.7939
  439THF     H5 8699   0.081   2.741   4.856 -0.2499  0.6681  0.7426
  439THF     H6 8700   0.088   3.097   4.694 -1.6504 -1.5203 -2.1623
  439THF     H7 8701  -0.009   2.965   4.645  3.1014  0.6698  0.8248
  439THF     C8 8702  -0.023   3.013   4.863  0.1350  0.3318 -0.5656
  439THF     C9 8703   0.056   2.938   4.960 -0.1052  0.0032  0.2888
  439THF    H10 8704  -0.121   2.976   4.870  1.4533 -0.7572 -1.4380
  439THF    H11 8705  -0.020   3.116   4.892  0.3965 -3.4234  2.7869
  439THF    H12 8706   0.112   3.015   5.004 -0.7724 -1.6569 -3.6415
  439THF    H13 8707   0.001   2.882   5.035 -0.6794  0.4420 -0.0587
  440THF     O1 8708   1.567   4.858   5.184  0.5178  0.9531 -0.0754
  440THF     C2 8709   1.538   4.773   5.301  0.5132  0.2979  0.1834
  440THF     C3 8710   1.699   4.917   5.198  0.2932 -0.2754  0.4534
  440THF     H4 8711   1.567   4.673   5.263  1.2433 -1.0973 -0.3846
  440THF     H5 8712   1.431   4.758   5.312 -0.3618 -2.9032  0.1451
  440THF     H6 8713   1.763   4.887   5.118 -0.3231  0.4390 -1.5164
  440THF     H7 8714   1.692   5.025   5.191  0.6148 -1.2915 -2.4438
  440THF     C8 8715   1.758   4.872   5.331 -0.0259  0.2454 -0.3804
  440THF     C9 8716   1.629   4.832   5.408  0.0487  0.4755 -0.2425
  440THF    H10 8717   1.820   4.942   5.387 -0.2776  1.9495  2.6573
  440THF    H11 8718   1.809   4.779   5.319 -1.2221 -2.0382 -1.6948
  440THF    H12 8719   1.630   4.762   5.495  0.0916  3.1875  0.1016
  440THF    H13 8720   1.580   4.927   5.449 -0.5597  2.1674 -0.4838
  441THF     O1 8721   1.969   4.032   0.416  0.3799  0.2644  0.4190
  441THF     C2 8722   1.929   3.942   0.320  0.4143 -0.4647 -0.0777
  441THF     C3 8723   1.874   4.133   0.436  0.0631 -0.1650  0.0964
  441THF     H4 8724   1.984   3.847   0.325  1.6678 -1.4902  1.4850
  441THF     H5 8725   1.939   3.974   0.217 -2.1837  0.4209 -1.6753
  441THF     H6 8726   1.883   4.150   0.548  1.5354 -1.5226  1.0835
  441THF     H7 8727   1.908   4.228   0.395 -0.8802  0.7015  0.1266
  441THF     C8 8728   1.744   4.072   0.373 -0.3768  0.5536 -0.2411
  441THF     C9 8729   1.776   3.927   0.350 -0.2018 -0.5630  0.3916
  441THF    H10 8730   1.707   4.114   0.278  0.2656  0.0221 -1.1491
  441THF    H11 8731   1.667   4.075   0.449 -0.7747 -1.7749  1.4776
  441THF    H12 8732   1.758   3.864   0.434  1.5134 -1.2651 -2.2356
  441THF    H13 8733   1.714   3.883   0.270 -2.7036  1.2512  1.4898
  442THF     O1 8734   2.562   0.533   0.691 -0.2624 -0.4515  0.2011
  442THF     C2 8735   2.465   0.434   0.683 -0.1472  0.3632 -0.2516
  442THF     C3 8736   2.688   0.494   0.634 -0.1850 -0.1264 -0.1479
  442THF     H4 8737   2.366   0.477   0.673  0.0066 -1.3943 -0.8392
  442THF     H5 8738   2.455   0.371   0.771  0.0752  1.7365 -0.5060
  442THF     H6 8739   2.746   0.581   0.604  0.4726 -0.6661  1.8279
  442THF     H7 8740   2.735   0.423   0.704 -2.0322 -0.6528 -0.1278
  442THF     C8 8741   2.633   0.433   0.507 -0.2732  0.7603 -0.0378
  442THF     C9 8742   2.513   0.360   0.556 -0.7472  0.4337 -0.6217
  442THF    H10 8743   2.712   0.367   0.467  1.2596  0.6697  0.9273
  442THF    H11 8744   2.600   0.511   0.433 -0.0866  2.1429 -1.6022
  442THF    H12 8745   2.438   0.339   0.482 -0.6527  0.7813  0.9890
  442THF    H13 8746   2.557   0.268   0.585  0.4436  0.1889 -2.2982
  443THF     O1 8747   1.729   0.922   3.101  0.2372  0.1363 -0.6063
  443THF     C2 8748   1.709   0.998   2.985 -0.1055  0.2219 -0.2569
  443THF     C3 8749   1.856   0.869   3.107 -0.2002 -0.3569 -0.1302
  443THF     H4 8750   1.627   1.066   2.994 -0.2991  0.1481 -2.7223
  443THF     H5 8751   1.680   0.933   2.896  0.5076 -2.3869  0.1437
  443THF     H6 8752   1.894   0.873   3.214 -0.2681  4.5813 -0.3707
  443THF     H7 8753   1.859   0.764   3.078 -0.5105  0.6790 -2.0018
  443THF     C8 8754   1.941   0.942   3.010  0.0937  0.0671  0.1749
  443THF     C9 8755   1.848   1.050   2.955  0.2767 -0.5121  0.2881
  443THF    H10 8756   1.984   0.872   2.935 -2.4006 -0.2700 -1.0117
  443THF    H11 8757   2.024   0.983   3.062 -1.1309  1.6499  1.0048
  443THF    H12 8758   1.871   1.139   3.011  1.4616  0.6605 -1.1349
  443THF    H13 8759   1.848   1.055   2.846  1.9910 -0.8433 -0.7540
  444THF     O1 8760   2.387   4.830   2.695  0.3316 -0.6786 -0.2788
  444THF     C2 8761   2.302   4.798   2.582 -0.1762  0.3458  0.6414
  444THF     C3 8762   2.504   4.750   2.681 -0.2761 -0.4588  0.0043
  444THF     H4 8763   2.319   4.854   2.491 -0.1138  0.4612  1.0043
  444THF     H5 8764   2.198   4.804   2.609 -1.9556 -1.4508  2.2207
  444THF     H6 8765   2.560   4.797   2.597 -0.6702 -0.7799 -3.0252
  444THF     H7 8766   2.576   4.746   2.763 -2.5086 -1.7623 -1.2856
  444THF     C8 8767   2.443   4.614   2.644 -0.0672  0.6417 -0.2611
  444THF     C9 8768   2.316   4.646   2.571 -0.6670  0.4050  0.0209
  444THF    H10 8769   2.424   4.559   2.732  0.3376  0.2945 -1.0942
  444THF    H11 8770   2.505   4.549   2.581  2.1168 -0.6006 -0.6264
  444THF    H12 8771   2.311   4.602   2.478  0.7798 -1.6017  1.9985
  444THF    H13 8772   2.239   4.597   2.628  0.4563  1.4110  0.0315
  445THF     O1 8773   0.782   2.766   0.574 -0.1975  0.1030  0.1279
  445THF     C2 8774   0.802   2.889   0.640  0.5358  0.0613  0.0706
  445THF     C3 8775   0.853   2.666   0.644 -0.3240  0.4824 -0.2016
  445THF     H4 8776   0.734   2.902   0.728  0.0080  0.1741  3.2681
  445THF     H5 8777   0.780   2.979   0.581 -0.6852  2.3031  1.4370
  445THF     H6 8778   0.781   2.625   0.720  0.0233 -1.0000  1.4624
  445THF     H7 8779   0.893   2.585   0.579  1.6542 -1.1839  1.4715
  445THF     C8 8780   0.965   2.748   0.721  0.8699  1.1452 -0.3686
  445THF     C9 8781   0.944   2.886   0.682  0.6649  0.2063 -0.4066
  445THF    H10 8782   1.063   2.716   0.686 -0.8962  0.9008 -0.4279
  445THF    H11 8783   0.953   2.717   0.827 -0.2489 -0.9171 -0.8511
  445THF    H12 8784   0.963   2.960   0.762 -0.3116  1.2043  0.4994
  445THF    H13 8785   1.011   2.913   0.593 -1.0803  0.6047 -2.8308
  446THF     O1 8786   4.603   0.196   3.258  0.2356 -0.1975  0.4108
  446THF     C2 8787   4.516   0.137   3.357  0.2386  0.3375  0.7551
  446THF     C3 8788   4.540   0.321   3.221  0.0448 -0.8543  0.7228
  446THF     H4 8789   4.562   0.054   3.407 -2.1104  1.9009  2.2928
  446THF     H5 8790   4.435   0.100   3.298 -0.3245  0.3416 -0.2339
  446THF     H6 8791   4.614   0.383   3.173 -0.8244  1.6510 -1.3630
  446THF     H7 8792   4.455   0.307   3.152  0.3826 -1.9921  0.2525
  446THF     C8 8793   4.490   0.376   3.362  0.5701  0.8798  0.0661
  446THF     C9 8794   4.480   0.251   3.445 -0.9447 -0.1131 -0.3855
  446THF    H10 8795   4.395   0.426   3.361 -0.4637 -0.0305 -0.7498
  446THF    H11 8796   4.564   0.448   3.405  2.4270  1.3477 -0.0366
  446THF    H12 8797   4.550   0.253   3.527  1.7053  0.2546 -0.3035
  446THF    H13 8798   4.384   0.230   3.490  1.2596  0.7822  0.8283
  447THF     O1 8799   4.087   2.190   1.607  0.2055  0.5839 -0.4342
  447THF     C2 8800   4.093   2.327   1.579 -0.2013 -0.5073 -0.2569
  447THF     C3 8801   4.043   2.169   1.736 -0.4773 -0.4637 -0.0332
  447THF     H4 8802   3.996   2.363   1.532 -3.0544  1.2170  0.0724
  447THF     H5 8803   4.174   2.348   1.514 -2.1708 -1.2332  0.4213
  447THF     H6 8804   3.937   2.178   1.743 -0.1957  1.5554 -1.1895
  447THF     H7 8805   4.074   2.073   1.775  0.9925 -0.0996  0.2955
  447THF     C8 8806   4.115   2.277   1.819 -0.2642  0.5380  0.3195
  447THF     C9 8807   4.116   2.391   1.717 -0.6945  0.9507  0.0311
  447THF    H10 8808   4.216   2.245   1.840 -0.2255  0.6934 -1.6531
  447THF    H11 8809   4.048   2.287   1.902 -0.3697  1.1529 -0.9400
  447THF    H12 8810   4.040   2.462   1.739 -0.6586 -1.1211 -0.0694
  447THF    H13 8811   4.208   2.448   1.717  1.9235 -0.5479  0.2765
  448THF     O1 8812   5.239   0.224   5.065 -0.4072  0.3896 -0.0660
  448THF     C2 8813   5.226   0.354   5.013 -0.1741 -0.2447 -0.7142
  448THF     C3 8814   5.368   0.208   5.126  0.0199  0.1843 -0.2419
  448THF     H4 8815   5.156   0.398   5.085 -2.1075 -1.4685  0.1118
  448THF     H5 8816   5.181   0.348   4.913  0.7596 -3.9782  4.3281
  448THF     H6 8817   5.369   0.175   5.228 -0.2475  0.7643  1.4306
  448THF     H7 8818   5.431   0.134   5.082 -0.9933  1.9412  0.5237
  448THF     C8 8819   5.423   0.351   5.136  0.1695 -0.3013  0.1623
  448THF     C9 8820   5.373   0.396   5.001 -0.0501 -0.1089  0.8162
  448THF    H10 8821   5.530   0.369   5.146 -0.7139  1.5718  0.8177
  448THF    H11 8822   5.388   0.415   5.212 -1.4782 -0.9806 -1.1060
  448THF    H12 8823   5.373   0.506   4.984  1.9111  3.8197 -0.3018
  448THF    H13 8824   5.433   0.346   4.919  0.0370 -2.4086  0.3356
  449THF     O1 8825   1.660   4.808   1.702  0.1804 -0.1018  0.2058
  449THF     C2 8826   1.672   4.948   1.720 -0.1021  0.7790  0.0184
  449THF     C3 8827   1.552   4.765   1.787 -0.2641  0.6327  0.2703
  449THF     H4 8828   1.624   5.001   1.632  0.3984 -2.8241 -3.4919
  449THF     H5 8829   1.779   4.982   1.735  1.9267  3.0019 -3.2286
  449THF     H6 8830   1.454   4.757   1.736  0.0204  0.0393 -0.4433
  449THF     H7 8831   1.573   4.662   1.825 -1.1276 -1.3206 -0.0289
  449THF     C8 8832   1.567   4.861   1.911 -0.0331 -0.3577 -0.3410
  449THF     C9 8833   1.603   4.994   1.845 -0.6455 -0.7413 -0.2580
  449THF    H10 8834   1.645   4.829   1.985 -0.0174  2.5723  0.2006
  449THF    H11 8835   1.467   4.867   1.960 -2.4575  2.0740  0.1921
  449THF    H12 8836   1.509   5.041   1.813  0.9578  0.3772 -0.8880
  449THF    H13 8837   1.655   5.061   1.911  0.4549 -1.1722 -0.5587
  450THF     O1 8838   1.594   2.384   0.569  0.4554 -0.0546  0.1758
  450THF     C2 8839   1.595   2.452   0.446 -0.1564 -0.0937 -0.7023
  450THF     C3 8840   1.477   2.422   0.643 -0.0549 -0.0425 -0.2120
  450THF     H4 8841   1.570   2.382   0.361 -0.1983 -0.0516 -1.1622
  450THF     H5 8842   1.694   2.492   0.428  1.6568 -0.7678 -0.8654
  450THF     H6 8843   1.436   2.345   0.702 -0.8456  2.8503 -1.4701
  450THF     H7 8844   1.513   2.485   0.718  2.9558 -2.6768 -1.1770
  450THF     C8 8845   1.386   2.490   0.542  0.4303  0.3351  0.4507
  450THF     C9 8846   1.486   2.562   0.450 -0.5709 -0.0588  0.0186
  450THF    H10 8847   1.317   2.565   0.583 -3.3053  0.8780  2.5623
  450THF    H11 8848   1.326   2.418   0.486  0.1986  1.8246 -0.5217
  450THF    H12 8849   1.454   2.590   0.345  0.8473 -1.2114 -1.3959
  450THF    H13 8850   1.533   2.652   0.504  0.9329  2.7487 -0.9755
  451THF     O1 8851   0.972   2.913   5.438 -0.6108 -0.0100  0.1784
  451THF     C2 8852   0.893   3.015   5.390 -0.5347  0.0819 -0.2684
  451THF     C3 8853   1.107   2.955   5.432 -0.4154  0.7452  0.4191
  451THF     H4 8854   0.782   3.011   5.410 -0.9749  1.0191 -0.6149
  451THF     H5 8855   0.910   3.019   5.283  2.0346  1.3266  0.9386
  451THF     H6 8856   1.180   2.900   5.484  0.7355  2.6691 -0.6252
  451THF     H7 8857   1.138   2.950   5.333  0.1658  0.9346  2.0649
  451THF     C8 8858   1.105   3.098   5.496  0.0381 -0.6275  0.5804
  451THF     C9 8859   0.965   3.146   5.448  0.3547  0.8509  0.1551
  451THF    H10 8860   1.180   3.160   5.447 -0.3789  1.5897 -1.3446
  451THF    H11 8861   1.111   3.090   5.606  0.1089 -1.9500  0.3820
  451THF    H12 8862   0.918   3.173   5.549 -0.0508 -0.5935  0.6411
  451THF    H13 8863   0.975   3.229   5.380 -0.4144 -1.9304  0.3209
  452THF     O1 8864   0.334   2.530   2.016 -0.1357  0.3100 -0.3811
  452THF     C2 8865   0.254   2.455   2.108 -0.6057 -0.6604  0.2940
  452THF     C3 8866   0.295   2.500   1.880  0.6119  0.2872 -0.1247
  452THF     H4 8867   0.233   2.526   2.187 -1.6768 -0.7048 -3.0502
  452THF     H5 8868   0.291   2.367   2.162 -3.1388  0.3501  1.9163
  452THF     H6 8869   0.334   2.582   1.816  1.4603  1.0547  2.1300
  452THF     H7 8870   0.345   2.412   1.853  0.5338  0.0680  0.3420
  452THF     C8 8871   0.140   2.487   1.900  0.3324 -1.0355  0.7594
  452THF     C9 8872   0.130   2.418   2.032  0.0057  0.0726  0.1552
  452THF    H10 8873   0.092   2.430   1.816  1.0261 -0.4090 -2.8992
  452THF    H11 8874   0.099   2.591   1.905  1.1193  0.4183  2.7639
  452THF    H12 8875   0.042   2.459   2.085 -0.4247  0.4157 -1.1172
  452THF    H13 8876   0.128   2.306   2.023 -0.6208 -1.5722 -3.0490
  453THF     O1 8877   1.735   2.752   1.423 -0.1566  0.1940 -0.5968
  453THF     C2 8878   1.831   2.790   1.324 -0.3813 -0.0881  0.3488
  453THF     C3 8879   1.610   2.816   1.401 -0.3459  0.5394  0.8506
  453THF     H4 8880   1.811   2.733   1.224  0.9397  0.8016 -3.2628
  453THF     H5 8881   1.928   2.765   1.360  0.1755  1.2058  0.1731
  453THF     H6 8882   1.549   2.756   1.337  0.9229  1.2832 -0.8596
  453THF     H7 8883   1.561   2.833   1.499  2.0630  3.0802  2.0274
  453THF     C8 8884   1.644   2.938   1.315 -0.0092  0.1945  0.3779
  453THF     C9 8885   1.798   2.938   1.299 -0.4756 -0.3876  0.0838
  453THF    H10 8886   1.594   3.025   1.361 -2.9398  1.2465  2.9231
  453THF    H11 8887   1.602   2.939   1.216  0.4701  3.5385 -1.4072
  453THF    H12 8888   1.825   2.958   1.193  0.6378 -2.1759  0.1327
  453THF    H13 8889   1.838   3.003   1.374 -2.2628 -0.9480 -3.3822
  454THF     O1 8890   0.363   1.042   1.645 -0.1135  0.3463 -0.0789
  454THF     C2 8891   0.247   1.021   1.732  0.2693 -0.0970 -0.3872
  454THF     C3 8892   0.423   1.164   1.679  0.5188 -0.3098 -0.3110
  454THF     H4 8893   0.217   0.919   1.736  0.4013  3.3720  2.6138
  454THF     H5 8894   0.163   1.059   1.677  1.3051 -1.5454 -0.0284
  454THF     H6 8895   0.532   1.152   1.683  0.3771  2.5874  0.3264
  454THF     H7 8896   0.396   1.233   1.600  0.8128 -2.8844  0.8210
  454THF     C8 8897   0.370   1.205   1.816 -0.5484 -0.5450 -0.5438
  454THF     C9 8898   0.287   1.089   1.868  0.0717  0.0867 -0.9434
  454THF    H10 8899   0.307   1.293   1.794  0.8582  1.3234 -0.8622
  454THF    H11 8900   0.448   1.245   1.885 -0.4319  0.3423  3.3872
  454THF    H12 8901   0.354   1.016   1.921 -1.1908  1.5170  0.7512
  454THF    H13 8902   0.195   1.113   1.922 -0.0922 -2.3083 -0.2165
  455THF     O1 8903   1.439   3.243   2.061  0.1074 -0.1604 -0.2827
  455THF     C2 8904   1.349   3.282   1.958  0.4991 -0.5449 -0.1804
  455THF     C3 8905   1.405   3.313   2.176 -0.0898  0.2676 -0.0613
  455THF     H4 8906   1.355   3.202   1.885 -0.6994 -1.6699  2.3904
  455THF     H5 8907   1.398   3.373   1.914 -0.0084 -0.2786  1.9363
  455THF     H6 8908   1.397   3.250   2.266  1.0171 -0.7346 -2.5118
  455THF     H7 8909   1.487   3.384   2.188  0.1466 -1.4685  1.0450
  455THF     C8 8910   1.271   3.382   2.160 -0.1933  0.0238  0.1030
  455THF     C9 8911   1.217   3.306   2.035  0.1629 -0.1614 -0.1682
  455THF    H10 8912   1.287   3.491   2.133 -0.1791  0.4316  0.1119
  455THF    H11 8913   1.215   3.380   2.254 -0.8863  0.1952 -0.3079
  455THF    H12 8914   1.177   3.202   2.063  0.3574 -4.4568 -0.3490
  455THF    H13 8915   1.137   3.357   1.986 -2.6164 -2.3209  0.0914
  456THF     O1 8916   1.874   4.321   3.547 -0.1670 -0.3355 -0.2466
  456THF     C2 8917   1.801   4.338   3.664  0.4850  0.1748  0.1872
  456THF     C3 8918   1.911   4.454   3.500 -0.3510 -0.2117 -0.0727
  456THF     H4 8919   1.882   4.353   3.741 -2.0398 -1.6757 -0.3509
  456THF     H5 8920   1.744   4.249   3.687  1.3616 -0.2837  0.5536
  456THF     H6 8921   1.990   4.492   3.559 -3.3757 -2.4991 -0.2207
  456THF     H7 8922   1.951   4.450   3.394 -0.8049 -0.8226 -3.5090
  456THF     C8 8923   1.786   4.538   3.524  0.1012 -1.1055  1.0406
  456THF     C9 8924   1.709   4.458   3.624  0.7900  0.0639  0.2057
  456THF    H10 8925   1.729   4.561   3.432  0.0212 -0.5698  0.0086
  456THF    H11 8926   1.812   4.629   3.571 -0.1611 -3.1611 -2.4202
  456THF    H12 8927   1.682   4.506   3.719  4.9698 -0.5759 -0.3084
  456THF    H13 8928   1.623   4.421   3.576  3.1314  2.6352 -0.9323
  457THF     O1 8929   1.807   1.470   2.778  0.3525  0.3192 -0.3926
  457THF     C2 8930   1.828   1.436   2.915  0.2558  0.8622  0.2086
  457THF     C3 8931   1.731   1.586   2.790  0.2777  0.0469  0.3447
  457THF     H4 8932   1.899   1.499   2.966 -0.4422  0.9405  0.0056
  457THF     H5 8933   1.873   1.334   2.921  0.1727  1.8105  1.9279
  457THF     H6 8934   1.807   1.664   2.816  0.5472  0.8398 -0.4032
  457THF     H7 8935   1.679   1.619   2.702 -0.7299  2.6257  4.1475
  457THF     C8 8936   1.621   1.555   2.893 -0.2190 -0.4255  0.4454
  457THF     C9 8937   1.685   1.436   2.968 -0.2409  0.4071 -0.1246
  457THF    H10 8938   1.527   1.519   2.854  1.5498 -1.1590  0.2909
  457THF    H11 8939   1.606   1.647   2.964  0.6632  0.6133 -2.3974
  457THF    H12 8940   1.676   1.460   3.073 -0.3984  0.0348 -0.6648
  457THF    H13 8941   1.631   1.341   2.942 -0.8336 -1.5567  0.7002
  458THF     O1 8942   4.362   1.833   0.554  0.3110  0.5873 -0.0542
  458THF     C2 8943   4.237   1.879   0.502  0.3031  0.0191  0.5401
  458THF     C3 8944   4.344   1.782   0.679  0.1575 -0.1578  0.7937
  458THF     H4 8945   4.212   1.826   0.407  0.4455 -0.5687 -2.3028
  458THF     H5 8946   4.245   1.987   0.477  1.1115  0.6688  0.5765
  458THF     H6 8947   4.398   1.688   0.690 -3.2021  1.3596  0.2747
  458THF     H7 8948   4.371   1.852   0.759 -0.5425 -1.9367 -2.6385
  458THF     C8 8949   4.196   1.741   0.698 -0.9851  0.0365 -0.8769
  458THF     C9 8950   4.132   1.850   0.615  0.1536  0.0429  0.3073
  458THF    H10 8951   4.172   1.751   0.802  1.8622 -1.0562  3.7283
  458THF    H11 8952   4.180   1.640   0.648  3.3031 -1.7657 -1.5448
  458THF    H12 8953   4.029   1.821   0.579 -1.1418 -1.0331  0.5352
  458THF    H13 8954   4.127   1.935   0.684 -0.9756 -0.8571 -2.3029
  459THF     O1 8955   3.663   1.187   0.217 -0.0407 -0.1622 -0.2351
  459THF     C2 8956   3.728   1.259   0.326 -0.5355 -0.2087 -0.2677
  459THF     C3 8957   3.760   1.094   0.170 -0.2676  0.0144  0.2046
  459THF     H4 8958   3.738   1.201   0.421  1.8821  4.1929  0.9670
  459THF     H5 8959   3.673   1.353   0.344  1.0544  0.3497 -0.9822
  459THF     H6 8960   3.769   1.005   0.237 -0.7248  1.1389  0.1541
  459THF     H7 8961   3.742   1.065   0.069  0.5889  1.5283  0.9632
  459THF     C8 8962   3.887   1.174   0.175 -0.1560  0.0404  0.8054
  459THF     C9 8963   3.862   1.285   0.265 -0.4229 -0.2939 -0.3888
  459THF    H10 8964   3.910   1.218   0.075 -1.7611 -1.8794  2.2544
  459THF    H11 8965   3.975   1.112   0.206 -2.4528 -0.8026 -2.0827
  459THF    H12 8966   3.943   1.310   0.342  0.7421 -0.7001  0.4027
  459THF    H13 8967   3.859   1.382   0.210  2.2643 -3.3542 -0.6427
  460THF     O1 8968   0.695   2.674   0.980  0.4591  0.4399 -0.0469
  460THF     C2 8969   0.641   2.805   1.001 -0.0535  0.7081 -0.4010
  460THF     C3 8970   0.790   2.651   1.078  0.5168  0.4300 -0.1140
  460THF     H4 8971   0.560   2.806   1.072  1.2115  0.8778 -1.9511
  460THF     H5 8972   0.606   2.844   0.901 -0.0079  0.6248  0.5642
  460THF     H6 8973   0.725   2.615   1.159  0.6480 -3.9455 -1.0932
  460THF     H7 8974   0.861   2.573   1.039  0.1641  0.2330 -2.2411
  460THF     C8 8975   0.859   2.790   1.089  0.4860  0.6317 -0.5319
  460THF     C9 8976   0.760   2.893   1.041 -0.1384 -0.0756  0.2976
  460THF    H10 8977   0.950   2.785   1.035  1.0082 -2.5007 -0.5273
  460THF    H11 8978   0.896   2.789   1.196 -0.5617  0.7608 -0.9239
  460THF    H12 8979   0.748   2.971   1.110 -1.9467 -1.1131 -0.9700
  460THF    H13 8980   0.790   2.946   0.950 -3.1191  0.6193 -0.8754
  461THF     O1 8981   2.643   0.120   0.174 -0.0292  0.1342  0.0597
  461THF     C2 8982   2.584   0.069   0.290 -1.0359 -0.0527 -0.2955
  461THF     C3 8983   2.609   0.031   0.068 -0.3052 -0.5703  0.3030
  461THF     H4 8984   2.582   0.142   0.364 -2.0282 -0.2734 -0.0782
  461THF     H5 8985   2.637  -0.019   0.337  1.6130 -2.4632  0.1133
  461THF     H6 8986   2.614   0.087  -0.025  0.1293  0.8169  0.0221
  461THF     H7 8987   2.674  -0.055   0.050 -3.7726  0.1077 -1.7248
  461THF     C8 8988   2.469  -0.028   0.105  0.1563 -0.3333  0.6085
  461THF     C9 8989   2.439   0.036   0.245  0.4547 -0.4305 -0.1882
  461THF    H10 8990   2.464  -0.135   0.114  0.2101  0.3965 -0.1241
  461THF    H11 8991   2.390  -0.006   0.031  1.5081  0.4661  1.0170
  461THF    H12 8992   2.389   0.124   0.232  2.2782  0.1032  2.5410
  461THF    H13 8993   2.374  -0.028   0.309  2.4390  0.0824 -1.1147
  462THF     O1 8994   0.083   0.542   4.767  0.2109  0.1713  0.1721
  462THF     C2 8995   0.212   0.524   4.721  0.0434  0.4939 -0.3120
  462THF     C3 8996   0.005   0.594   4.662  0.3917 -0.6670  0.7345
  462THF     H4 8997   0.269   0.454   4.783 -0.3042  0.6073 -1.8020
  462THF     H5 8998   0.254   0.625   4.722  1.1638  0.4270 -0.3514
  462THF     H6 8999  -0.111   0.580   4.667 -0.7386 -2.4407  2.0774
  462THF     H7 9000   0.022   0.697   4.672 -1.5819 -1.5269  0.1602
  462THF     C8 9001   0.070   0.546   4.530  1.0285  0.5603 -0.6520
  462THF     C9 9002   0.207   0.490   4.577  0.5180 -0.2271 -0.0919
  462THF    H10 9003   0.086   0.629   4.456  0.9641  0.5272 -0.9786
  462THF    H11 9004   0.012   0.474   4.479  1.4212 -1.7589  1.9161
  462THF    H12 9005   0.197   0.385   4.562 -1.1620  2.3620  1.5896
  462THF    H13 9006   0.288   0.526   4.514  0.6833  0.1096 -0.1634
  463THF     O1 9007   2.768   1.804   0.203 -0.1084  0.1121  0.3031
  463THF     C2 9008   2.661   1.806   0.114 -0.0238 -0.0880 -0.0215
  463THF     C3 9009   2.736   1.710   0.304 -0.1807 -0.2456  0.5447
  463THF     H4 9010   2.699   1.788   0.011  3.2841 -1.0960  0.3439
  463THF     H5 9011   2.606   1.900   0.122  0.5881 -0.6987  1.0403
  463THF     H6 9012   2.827   1.663   0.336  0.2674 -1.3121  2.1737
  463THF     H7 9013   2.702   1.758   0.397  1.5068  1.1805 -0.1724
  463THF     C8 9014   2.629   1.617   0.252 -0.8234 -0.6568 -0.2614
  463THF     C9 9015   2.556   1.703   0.155 -0.4006 -0.0116  0.5805
  463THF    H10 9016   2.583   1.564   0.332 -0.2399 -1.3545  0.4235
  463THF    H11 9017   2.691   1.544   0.204  2.0222 -0.1334 -0.2991
  463THF    H12 9018   2.531   1.650   0.063  0.8036 -3.0546 -3.2664
  463THF    H13 9019   2.461   1.740   0.195 -0.1614  2.2646 -1.2491
  464THF     O1 9020   4.360   3.136   0.622 -0.2471 -0.3380  0.0009
  464THF     C2 9021   4.229   3.113   0.662 -0.1940 -0.0834 -0.0635
  464THF     C3 9022   4.364   3.232   0.522  0.9646 -0.0024 -0.0701
  464THF     H4 9023   4.219   3.091   0.769 -0.9107 -2.8838  1.7550
  464THF     H5 9024   4.193   3.029   0.607  0.4673  2.9022 -1.1571
  464THF     H6 9025   4.430   3.312   0.560 -1.5897 -1.9403 -0.3955
  464THF     H7 9026   4.404   3.190   0.433 -0.5748  0.1686  1.5553
  464THF     C8 9027   4.220   3.291   0.508 -0.2047 -0.3369  0.3088
  464THF     C9 9028   4.150   3.241   0.624 -0.9221  0.0815 -0.8988
  464THF    H10 9029   4.169   3.260   0.416  2.4714  1.3683 -1.9427
  464THF    H11 9030   4.225   3.401   0.496 -1.6859  1.7531  0.0251
  464THF    H12 9031   4.163   3.309   0.703  0.2898 -0.9219  0.3013
  464THF    H13 9032   4.050   3.226   0.605  1.6172  2.6214  0.6852
  465THF     O1 9033   3.555   4.919   0.220  0.5704 -0.9896 -0.2778
  465THF     C2 9034   3.461   5.019   0.188 -0.4855 -0.1314  0.0697
  465THF     C3 9035   3.507   4.804   0.152 -0.4449  0.4733 -0.4425
  465THF     H4 9036   3.474   5.064   0.093 -0.8862 -0.7647  1.9885
  465THF     H5 9037   3.464   5.099   0.264  1.3979  0.2845 -0.1084
  465THF     H6 9038   3.550   4.800   0.055  0.6271 -0.2288 -0.1476
  465THF     H7 9039   3.557   4.721   0.213  2.6540 -0.0022 -0.8051
  465THF     C8 9040   3.351   4.812   0.140 -0.0725 -0.2895  0.1132
  465THF     C9 9041   3.322   4.950   0.199 -0.3040  0.1445 -0.3319
  465THF    H10 9042   3.298   4.743   0.193 -3.2720  0.5645 -0.6829
  465THF    H11 9043   3.334   4.808   0.035 -0.0082  0.4241  2.6726
  465THF    H12 9044   3.244   5.002   0.143 -2.5953 -2.5369  0.0074
  465THF    H13 9045   3.278   4.957   0.299 -0.1633  1.3707 -1.2593
  466THF     O1 9046   1.348   2.735   0.866  0.1656 -0.0374  0.0715
  466THF     C2 9047   1.383   2.809   0.758 -0.0107  0.3865  0.7002
  466THF     C3 9048   1.362   2.812   0.984 -0.8081  0.3044  0.4571
  466THF     H4 9049   1.330   2.752   0.674  2.2919 -0.7831  0.4575
  466THF     H5 9050   1.492   2.815   0.750 -1.5996 -0.5473  1.2583
  466THF     H6 9051   1.288   2.765   1.046  2.0762 -1.4145  1.5271
  466THF     H7 9052   1.464   2.800   1.019  1.5614 -1.6300  2.7457
  466THF     C8 9053   1.317   2.953   0.942 -0.1720  0.5417  0.4429
  466THF     C9 9054   1.330   2.949   0.792  0.5322  0.1460 -0.9790
  466THF    H10 9055   1.371   3.040   0.981 -1.0579  0.2184  0.5516
  466THF    H11 9056   1.214   2.974   0.970  0.0806  1.6077 -0.1159
  466THF    H12 9057   1.228   2.966   0.744  2.6508 -1.6964  0.8857
  466THF    H13 9058   1.396   3.029   0.761 -0.5432  3.4389 -0.2814
  467THF     O1 9059   2.927   3.974   3.462 -0.0903 -0.2352  0.2540
  467THF     C2 9060   2.883   4.092   3.517 -0.2210 -0.2022  0.0885
  467THF     C3 9061   2.868   3.964   3.330  0.2453 -0.1056 -0.5793
  467THF     H4 9062   2.962   4.166   3.501  1.4856 -1.6115 -1.4283
  467THF     H5 9063   2.858   4.097   3.619 -1.2230 -0.1112  0.6126
  467THF     H6 9064   2.923   4.028   3.261 -1.4462 -0.2107 -0.6696
  467THF     H7 9065   2.879   3.860   3.291 -0.5661  0.3830  0.5498
  467THF     C8 9066   2.730   4.019   3.343 -0.2902  0.1969 -0.5343
  467THF     C9 9067   2.754   4.130   3.445 -0.2056  0.1193 -0.0839
  467THF    H10 9068   2.681   3.936   3.395 -1.2195 -0.0922  1.4552
  467THF    H11 9069   2.690   4.044   3.240 -0.4104 -0.8790 -3.0517
  467THF    H12 9070   2.765   4.223   3.395 -0.9937 -2.7141 -0.3577
  467THF    H13 9071   2.673   4.127   3.518  1.8661 -1.1610 -0.0691
  468THF     O1 9072   5.038   3.720   2.762  0.1396 -0.4434 -0.3472
  468THF     C2 9073   5.030   3.630   2.873 -0.4920  0.2228 -0.0021
  468THF     C3 9074   4.953   3.668   2.662 -0.3182 -0.8236  0.5578
  468THF     H4 9075   4.932   3.621   2.918  2.8684  1.1618  0.4872
  468THF     H5 9076   5.111   3.662   2.939 -1.0699  1.8802  0.0447
  468THF     H6 9077   4.844   3.665   2.695  1.2256  0.8407  1.9134
  468THF     H7 9078   4.953   3.720   2.561 -1.7279 -0.3726  0.2081
  468THF     C8 9079   4.999   3.521   2.662  0.0869 -0.3373  0.3251
  468THF     C9 9080   5.063   3.497   2.797  0.9380 -1.2703  0.8498
  468THF    H10 9081   5.071   3.507   2.583  0.2118 -1.9721 -0.0879
  468THF    H11 9082   4.918   3.447   2.643  2.5990 -0.7870  2.3878
  468THF    H12 9083   5.026   3.408   2.848 -0.7867  0.8867  0.6142
  468THF    H13 9084   5.171   3.499   2.781 -0.9118  2.6631 -3.9639
  469THF     O1 9085   5.349   2.639   3.537  0.2031  0.0870 -0.9294
  469THF     C2 9086   5.462   2.551   3.547 -0.2663 -0.1136 -0.3883
  469THF     C3 9087   5.231   2.575   3.574 -0.7005  0.4086 -0.5559
  469THF     H4 9088   5.518   2.562   3.642 -0.4659  0.9369 -1.0899
  469THF     H5 9089   5.529   2.578   3.462 -2.0834 -1.7039  0.4732
  469THF     H6 9090   5.204   2.584   3.683  1.3044 -3.1826  0.9416
  469THF     H7 9091   5.149   2.619   3.519 -1.0977  0.2348 -0.3354
  469THF     C8 9092   5.258   2.427   3.526  0.5596  0.1140 -0.1582
  469THF     C9 9093   5.413   2.416   3.531 -0.2794  0.5464 -0.2800
  469THF    H10 9094   5.223   2.423   3.423  0.1156  1.0926  0.1357
  469THF    H11 9095   5.203   2.355   3.587 -0.9214 -1.3120 -0.8149
  469THF    H12 9096   5.457   2.349   3.609 -1.1137 -1.0049 -1.5371
  469THF    H13 9097   5.439   2.374   3.436 -0.8964 -0.9491 -1.7218
  470THF     O1 9098   3.807   4.268   1.397  0.3094  0.0012 -0.3931
  470THF     C2 9099   3.766   4.300   1.260 -0.5073 -0.0427  0.5239
  470THF     C3 9100   3.805   4.392   1.463 -0.3158 -0.7312 -0.2017
  470THF     H4 9101   3.705   4.216   1.232  1.3223 -0.5071 -1.0650
  470THF     H5 9102   3.847   4.310   1.195 -0.0469  0.7445  0.7443
  470THF     H6 9103   3.802   4.377   1.571 -1.0811 -0.9244 -2.4562
  470THF     H7 9104   3.892   4.446   1.454 -1.0110  0.2614  0.4442
  470THF     C8 9105   3.676   4.455   1.413  0.2472 -0.5812 -0.4566
  470THF     C9 9106   3.679   4.428   1.265  0.1847  0.4045  0.4525
  470THF    H10 9107   3.659   4.565   1.434 -0.9394  1.9552  0.8204
  470THF    H11 9108   3.600   4.393   1.461  0.3690 -0.8975 -0.3197
  470THF    H12 9109   3.578   4.414   1.229  0.3105 -0.6848 -1.1895
  470THF    H13 9110   3.726   4.507   1.212 -0.1826 -0.3036 -0.5155
  471THF     O1 9111   0.224   2.917   1.434 -0.2837 -0.0153 -0.2481
  471THF     C2 9112   0.303   2.800   1.423 -0.4238 -0.4827 -0.2168
  471THF     C3 9113   0.121   2.909   1.338 -0.0960 -0.1488 -0.2140
  471THF     H4 9114   0.360   2.773   1.514 -0.0236 -0.1797  0.1072
  471THF     H5 9115   0.373   2.800   1.340 -2.1312 -1.5710  1.8885
  471THF     H6 9116   0.041   2.965   1.392  0.2050 -2.7845  1.2095
  471THF     H7 9117   0.151   2.964   1.251  1.3502  0.4669  0.0188
  471THF     C8 9118   0.098   2.760   1.318 -0.1977  0.2977 -0.2829
  471THF     C9 9119   0.188   2.698   1.420 -0.2814 -0.4020  0.4424
  471THF    H10 9120   0.138   2.737   1.223  1.4040 -0.8221  1.5437
  471THF    H11 9121  -0.005   2.730   1.322 -1.0323  0.1664  0.1415
  471THF    H12 9122   0.130   2.672   1.512 -0.9285 -0.6294 -0.5284
  471THF    H13 9123   0.219   2.603   1.380 -0.8960  0.6895  1.1796
  472THF     O1 9124   0.072   2.552   0.194  0.1513  0.0804  0.2827
  472THF     C2 9125   0.051   2.480   0.078  0.3539 -0.4463  0.2784
  472THF     C3 9126   0.001   2.487   0.302 -1.2109  0.3493 -0.1480
  472THF     H4 9127   0.103   2.512  -0.013 -3.9758  0.8917 -0.7971
  472THF     H5 9128  -0.053   2.484   0.044  4.8737  2.6890  0.6819
  472THF     H6 9129   0.045   2.521   0.401 -1.7146 -1.1951  0.3168
  472THF     H7 9130  -0.105   2.520   0.293  0.1895 -2.3591 -0.3673
  472THF     C8 9131   0.017   2.341   0.270 -0.3301 -0.0102 -0.1248
  472THF     C9 9132   0.098   2.347   0.141 -0.2076  0.6210 -0.4691
  472THF    H10 9133  -0.088   2.306   0.263 -0.1484  0.4149  0.3587
  472THF    H11 9134   0.061   2.288   0.354 -0.2148 -2.3568  0.2278
  472THF    H12 9135   0.206   2.355   0.163  2.9285  1.1526  3.3420
  472THF    H13 9136   0.093   2.265   0.073  1.1057  0.8924  0.1534
  473THF     O1 9137   1.299   0.360   1.580  0.0089  0.1147 -0.7423
  473THF     C2 9138   1.330   0.356   1.726  0.1833  0.0613  0.8973
  473THF     C3 9139   1.414   0.412   1.506 -0.6146  0.2652 -0.0936
  473THF     H4 9140   1.263   0.281   1.771 -0.2826 -1.1714 -0.4964
  473THF     H5 9141   1.326   0.449   1.766  0.6349  0.1102 -0.2972
  473THF     H6 9142   1.411   0.393   1.401  2.0841  2.0267  2.1675
  473THF     H7 9143   1.432   0.516   1.521 -0.7063 -0.1999  0.3220
  473THF     C8 9144   1.518   0.327   1.573 -0.3529 -0.0826  0.6942
  473THF     C9 9145   1.478   0.305   1.714  0.0237  0.3032 -0.7246
  473THF    H10 9146   1.608   0.384   1.560 -1.7658  2.2915  1.2135
  473THF    H11 9147   1.538   0.233   1.527 -0.1034  2.1505  0.0220
  473THF    H12 9148   1.482   0.200   1.738  0.3152 -1.7847 -1.4792
  473THF    H13 9149   1.532   0.362   1.794 -0.1943  1.0542  0.4417
  474THF     O1 9150   2.859   5.267   5.449 -0.2688  0.3372 -0.3470
  474THF     C2 9151   2.939   5.386   5.465  0.6550 -0.8858  0.2873
  474THF     C3 9152   2.899   5.178   5.544  0.4943  0.8625 -0.3857
  474THF     H4 9153   2.884   5.457   5.531  0.4892  0.9078  1.2594
  474THF     H5 9154   2.946   5.440   5.373 -1.4546 -2.7114 -1.1515
  474THF     H6 9155   2.829   5.183   5.622  0.4637  2.1692 -1.1948
  474THF     H7 9156   2.911   5.080   5.502  0.8054  3.0645 -1.3684
  474THF     C8 9157   3.033   5.228   5.605  0.5696  0.3278 -0.0545
  474THF     C9 9158   3.075   5.347   5.516 -0.3508 -0.3055  0.0193
  474THF    H10 9159   3.108   5.151   5.608 -0.5458  0.0145  1.1554
  474THF    H11 9160   3.004   5.255   5.707  2.1407 -0.9954 -0.4748
  474THF    H12 9161   3.117   5.426   5.584  2.0413 -1.4103 -1.5468
  474THF    H13 9162   3.150   5.317   5.439  0.0218 -0.8704 -0.3166
  475THF     O1 9163   3.781   4.854   4.023 -0.3634 -0.2550 -0.0582
  475THF     C2 9164   3.885   4.768   4.068 -0.1704 -0.3112 -0.4293
  475THF     C3 9165   3.713   4.790   3.918  0.4811 -0.4525 -0.8599
  475THF     H4 9166   3.930   4.797   4.161 -0.1796 -0.2481  1.2869
  475THF     H5 9167   3.967   4.764   3.995  1.1045 -0.8871  1.7963
  475THF     H6 9168   3.616   4.836   3.912  0.9500 -2.2854 -0.2172
  475THF     H7 9169   3.755   4.798   3.817  1.1534 -2.0957  0.2405
  475THF     C8 9170   3.713   4.643   3.948  0.1870  0.4867 -0.5364
  475THF     C9 9171   3.821   4.625   4.057  0.0570 -0.2081  0.5067
  475THF    H10 9172   3.733   4.585   3.852 -0.1060 -1.0973 -0.4105
  475THF    H11 9173   3.623   4.608   4.000  1.0399 -1.4006  1.2021
  475THF    H12 9174   3.767   4.612   4.153 -0.1622 -0.5408  1.0756
  475THF    H13 9175   3.887   4.540   4.044  0.7981 -1.6543  1.0119
  476THF     O1 9176   4.129   1.155   3.853  0.2018 -0.0252  0.0982
  476THF     C2 9177   4.038   1.045   3.826  0.5305  0.5621 -0.1629
  476THF     C3 9178   4.105   1.210   3.980  0.2379 -0.3602 -0.4406
  476THF     H4 9179   4.103   0.957   3.822  0.9568 -1.0830 -2.3534
  476THF     H5 9180   3.988   1.061   3.727  1.9868  0.2752  1.3238
  476THF     H6 9181   4.181   1.256   4.042  1.7729 -0.1952  1.0883
  476THF     H7 9182   4.046   1.296   3.961 -1.1870 -0.0020  0.3202
  476THF     C8 9183   4.025   1.108   4.051 -0.8382  0.1296 -0.4513
  476THF     C9 9184   3.941   1.037   3.944 -0.1876  0.0094 -0.1695
  476THF    H10 9185   3.965   1.154   4.132 -1.3702 -1.8323  0.1619
  476THF    H11 9186   4.096   1.043   4.101  0.8503  1.5639 -1.8508
  476THF    H12 9187   3.911   0.936   3.976 -0.5645  1.3212 -0.0472
  476THF    H13 9188   3.853   1.092   3.936  0.6491 -1.5821  0.8730
  477THF     O1 9189   2.609   1.042   0.111  0.3025 -0.0982 -0.6421
  477THF     C2 9190   2.546   0.910   0.114 -0.7293 -0.1514 -0.3401
  477THF     C3 9191   2.516   1.141   0.147 -0.7626  0.3569 -0.0512
  477THF     H4 9192   2.547   0.854   0.214 -3.1118 -1.7544  2.3363
  477THF     H5 9193   2.602   0.835   0.051 -1.0906 -2.8531  3.2706
  477THF     H6 9194   2.509   1.164   0.254 -3.4643 -0.1320 -0.4643
  477THF     H7 9195   2.543   1.232   0.088 -1.2246  0.4025  0.1394
  477THF     C8 9196   2.377   1.081   0.112 -0.2521  0.2435 -0.0575
  477THF     C9 9197   2.405   0.945   0.061 -0.1585  0.1816  0.9283
  477THF    H10 9198   2.328   1.130   0.038 -1.3636 -3.1049 -0.9785
  477THF    H11 9199   2.307   1.077   0.203  0.0813 -1.8243  2.0288
  477THF    H12 9200   2.332   0.870   0.092  3.4219  0.5003 -2.2271
  477THF    H13 9201   2.406   0.951  -0.049  0.8857  2.0528  0.4630
  478THF     O1 9202   2.765   0.778   1.004 -0.1146 -0.6321  0.4453
  478THF     C2 9203   2.871   0.685   0.988 -0.4764 -0.6805  0.1002
  478THF     C3 9204   2.639   0.693   1.005 -0.7102  0.3253 -0.4650
  478THF     H4 9205   2.967   0.727   1.024  1.9962  1.7837 -0.9679
  478THF     H5 9206   2.890   0.661   0.878  2.6096 -0.4853  1.7967
  478THF     H6 9207   2.566   0.743   1.073 -0.9863 -0.3244  1.9709
  478THF     H7 9208   2.590   0.699   0.905  0.1126  3.1418 -2.6880
  478THF     C8 9209   2.689   0.553   1.044 -0.0001  0.1563 -0.4297
  478THF     C9 9210   2.828   0.573   1.079 -0.4939  0.6017 -0.3664
  478THF    H10 9211   2.684   0.474   0.971  2.6086 -0.2760  1.4789
  478THF    H11 9212   2.627   0.509   1.134 -0.8864 -0.9281  0.4772
  478THF    H12 9213   2.839   0.597   1.183  0.9289  0.2008 -0.4459
  478THF    H13 9214   2.883   0.483   1.068  1.0043 -0.4017  1.1385
  479THF     O1 9215   4.950   0.833   1.857  0.2926 -0.8951 -0.3392
  479THF     C2 9216   4.921   0.825   1.717 -0.6489 -0.0149 -0.2493
  479THF     C3 9217   4.822   0.867   1.920 -0.3794  0.1840 -0.3596
  479THF     H4 9218   4.862   0.735   1.698 -0.5952 -1.3243  1.0019
  479THF     H5 9219   5.016   0.827   1.661 -0.7845  0.3966 -1.5263
  479THF     H6 9220   4.744   0.785   1.931 -0.7858  2.3066 -1.8286
  479THF     H7 9221   4.841   0.907   2.018 -0.6593 -3.2306  0.4267
  479THF     C8 9222   4.777   0.982   1.830 -0.1277  0.6267 -0.2773
  479THF     C9 9223   4.837   0.948   1.695 -0.0075  0.7150 -0.5430
  479THF    H10 9224   4.808   1.082   1.859  2.9930  1.3590  0.8050
  479THF    H11 9225   4.666   0.988   1.826  1.8118  0.4404  1.3328
  479THF    H12 9226   4.758   0.926   1.627  1.2354  1.7587  1.2047
  479THF    H13 9227   4.895   1.029   1.658  1.6435  0.3209 -0.7029
  480THF     O1 9228   2.143   3.432   0.817 -0.5276  0.2558  0.8140
  480THF     C2 9229   2.280   3.388   0.827  0.3848  0.4115 -0.7711
  480THF     C3 9230   2.099   3.381   0.691  0.4010  0.6215  0.2735
  480THF     H4 9231   2.308   3.395   0.932  0.1137  0.7756  0.8120
  480THF     H5 9232   2.364   3.449   0.776  2.2155  0.1734  2.3447
  480THF     H6 9233   1.995   3.396   0.664  1.6761  0.1639  0.4162
  480THF     H7 9234   2.146   3.430   0.609  0.6712 -2.5445  0.4708
  480THF     C8 9235   2.148   3.235   0.706  0.1370 -0.5362  0.1669
  480THF     C9 9236   2.280   3.247   0.781  0.0649  0.1274 -0.2045
  480THF    H10 9237   2.163   3.187   0.606  1.9702  0.0063 -0.7110
  480THF    H11 9238   2.083   3.169   0.757 -0.3867  0.4362 -0.5571
  480THF    H12 9239   2.290   3.180   0.868  0.9134  1.6729 -0.7591
  480THF    H13 9240   2.360   3.238   0.705 -4.4386  1.0273 -2.0220
  481THF     O1 9241   1.981   4.655   2.067  0.1972 -0.2666  0.0766
  481THF     C2 9242   1.860   4.690   2.130  0.2348  0.1323  0.2348
  481THF     C3 9243   2.082   4.657   2.170 -0.1849 -0.4787  0.4115
  481THF     H4 9244   1.778   4.667   2.060 -0.4087  0.0874  1.2169
  481THF     H5 9245   1.871   4.791   2.157 -1.0070 -2.1990  0.2224
  481THF     H6 9246   2.168   4.607   2.125  0.2962 -0.1275 -0.4311
  481THF     H7 9247   2.112   4.761   2.193 -0.1547 -0.3972 -0.3421
  481THF     C8 9248   2.004   4.593   2.289 -0.5999  0.3206 -0.4294
  481THF     C9 9249   1.855   4.591   2.243 -0.1057 -1.6359 -0.1643
  481THF    H10 9250   2.033   4.645   2.381 -0.5343  0.9395  0.5956
  481THF    H11 9251   2.047   4.496   2.303  0.7794  1.9340 -2.6863
  481THF    H12 9252   1.830   4.490   2.210  0.7928  0.3117 -2.5463
  481THF    H13 9253   1.788   4.614   2.329 -2.0280 -2.7639 -0.5453
  482THF     O1 9254   0.348   1.514   1.455 -0.1464  0.0444 -0.0527
  482THF     C2 9255   0.252   1.442   1.374 -0.1305  0.0179 -0.6667
  482THF     C3 9256   0.278   1.559   1.569  0.2839 -0.4416 -0.3086
  482THF     H4 9257   0.291   1.351   1.328 -0.4961 -0.0300 -0.7082
  482THF     H5 9258   0.228   1.510   1.296  0.2218 -0.1086 -2.0919
  482THF     H6 9259   0.301   1.514   1.663  2.3967 -1.4743 -0.6112
  482THF     H7 9260   0.289   1.666   1.580  0.1384 -1.6369 -2.1074
  482THF     C8 9261   0.123   1.538   1.537  0.1577  0.4601  0.7580
  482THF     C9 9262   0.128   1.413   1.458 -0.1895  0.2550 -0.6520
  482THF    H10 9263   0.077   1.618   1.479 -0.9640  0.8158  0.2379
  482THF    H11 9264   0.075   1.550   1.632  2.4451 -2.2809  1.1125
  482THF    H12 9265   0.147   1.329   1.531  1.0873 -2.4363 -2.4068
  482THF    H13 9266   0.038   1.406   1.396 -2.0841  0.5004 -0.4872
  483THF     O1 9267   2.682   2.797   1.022  0.0091 -0.2026  0.0206
  483THF     C2 9268   2.656   2.838   0.884  0.1541 -0.9431  0.1964
  483THF     C3 9269   2.560   2.824   1.094  0.3339 -0.4407  0.2729
  483THF     H4 9270   2.592   2.768   0.829  0.7592  1.6030  0.9940
  483THF     H5 9271   2.749   2.858   0.825 -1.1932 -0.0591 -0.3701
  483THF     H6 9272   2.479   2.749   1.062 -2.1599 -2.6820 -0.4512
  483THF     H7 9273   2.571   2.820   1.202 -0.2337 -1.1400  0.4929
  483THF     C8 9274   2.525   2.967   1.054 -0.1542 -0.6532  0.5537
  483THF     C9 9275   2.567   2.965   0.908  0.2215  0.0265  0.5135
  483THF    H10 9276   2.588   3.036   1.115  0.4548 -1.5476  0.8954
  483THF    H11 9277   2.418   2.983   1.061  0.5213 -2.2729 -1.8562
  483THF    H12 9278   2.479   2.957   0.848  0.4758 -2.4102  0.0073
  483THF    H13 9279   2.604   3.065   0.878 -0.8260  2.5327 -1.5387
  484THF     O1 9280   3.076   1.487   2.040 -0.3464 -0.3677  0.1719
  484THF     C2 9281   3.055   1.403   2.154 -0.0778 -0.8380  0.0980
  484THF     C3 9282   3.160   1.592   2.087  0.0514 -0.1928 -0.2463
  484THF     H4 9283   3.135   1.337   2.165 -0.7653  0.5266 -2.7530
  484THF     H5 9284   2.967   1.339   2.144 -1.1099  0.0507 -1.4428
  484THF     H6 9285   3.264   1.562   2.076 -0.6076 -0.6349 -2.1035
  484THF     H7 9286   3.155   1.675   2.026 -0.8585 -1.6376 -2.9963
  484THF     C8 9287   3.136   1.618   2.236  0.1090 -0.1523  0.1785
  484THF     C9 9288   3.034   1.500   2.271 -0.4582 -0.9945  0.1969
  484THF    H10 9289   3.086   1.711   2.256  0.1857  2.4402 -1.0244
  484THF    H11 9290   3.238   1.618   2.289 -1.2995  5.0711  0.3578
  484THF    H12 9291   3.048   1.467   2.371  0.9092  3.5850 -2.6626
  484THF    H13 9292   2.932   1.526   2.259 -1.6284 -0.6495 -0.7065
  485THF     O1 9293   5.378   3.017   4.031  0.2087  0.2312 -0.2959
  485THF     C2 9294   5.450   2.907   3.986 -0.1792 -0.1851  0.2699
  485THF     C3 9295   5.332   3.086   3.914 -0.2949 -0.4025  0.1390
  485THF     H4 9296   5.467   2.829   4.058  2.1339 -1.6856 -0.9460
  485THF     H5 9297   5.558   2.941   3.977  0.0294  1.2793  3.6276
  485THF     H6 9298   5.231   3.122   3.923  0.9689 -0.0640 -1.5817
  485THF     H7 9299   5.402   3.171   3.901  1.5113  0.6159  2.3905
  485THF     C8 9300   5.349   2.985   3.795 -0.2448  0.1058  0.0058
  485THF     C9 9301   5.384   2.856   3.861 -0.4752  0.1361  0.4621
  485THF    H10 9302   5.430   3.017   3.730 -1.2881  1.3365  3.4504
  485THF    H11 9303   5.254   2.976   3.741  1.2085  3.5642 -2.5626
  485THF    H12 9304   5.292   2.812   3.900 -2.0253  3.0420 -0.1809
  485THF    H13 9305   5.446   2.782   3.801  1.4124 -1.4825 -1.1402
  486THF     O1 9306   2.831   0.934   2.078  0.3794  0.3061 -0.5715
  486THF     C2 9307   2.723   0.842   2.090  0.2146 -0.4109 -0.7689
  486THF     C3 9308   2.876   0.967   2.210 -0.1527  0.1583 -0.5933
  486THF     H4 9309   2.748   0.733   2.082 -0.0270 -1.1346 -4.0656
  486THF     H5 9310   2.647   0.856   2.011  0.2751  2.2678 -0.3146
  486THF     H6 9311   2.957   0.899   2.247  2.7998 -1.2505  3.1641
  486THF     H7 9312   2.917   1.070   2.225 -1.6479  2.7996  0.4104
  486THF     C8 9313   2.750   0.955   2.299 -0.1403 -0.2806  0.3106
  486THF     C9 9314   2.655   0.863   2.225  0.1665  0.0103 -0.3180
  486THF    H10 9315   2.698   1.050   2.289  0.7119  1.1541 -0.2343
  486THF    H11 9316   2.774   0.935   2.405 -2.8420  0.1662 -0.0148
  486THF    H12 9317   2.637   0.764   2.277 -0.8005  2.0724  1.8514
  486THF    H13 9318   2.557   0.910   2.207 -1.0961  0.8230  0.7272
  487THF     O1 9319   3.287   1.755   1.090 -0.0932  0.4741 -0.1606
  487THF     C2 9320   3.402   1.710   1.022  0.4785  0.3030  0.2384
  487THF     C3 9321   3.320   1.860   1.182  0.2237  0.1955  0.5971
  487THF     H4 9322   3.446   1.765   0.939 -0.7023  2.1494  2.0715
  487THF     H5 9323   3.376   1.611   0.986 -0.3753 -0.3558 -0.7892
  487THF     H6 9324   3.279   1.953   1.155  0.0640  2.7345  0.2289
  487THF     H7 9325   3.285   1.825   1.286  2.4433 -0.4447  2.6387
  487THF     C8 9326   3.472   1.865   1.177  0.3149 -0.0460 -0.0738
  487THF     C9 9327   3.512   1.729   1.129 -0.6259  0.3466  0.5594
  487THF    H10 9328   3.526   1.912   1.255  1.1391 -2.3487 -0.3993
  487THF    H11 9329   3.491   1.938   1.098  1.6671  2.1105 -0.8988
  487THF    H12 9330   3.611   1.717   1.092  1.7859  1.2444 -0.5814
  487THF    H13 9331   3.501   1.659   1.211  1.8287 -1.7160 -0.2258
  488THF     O1 9332   2.823   2.810   3.275 -1.2216  0.8955  0.7458
  488THF     C2 9333   2.764   2.679   3.284 -0.2221  0.5590  0.3729
  488THF     C3 9334   2.716   2.899   3.267 -0.0287 -0.4960  0.0198
  488THF     H4 9335   2.722   2.665   3.381 -1.6737 -0.2711  2.0569
  488THF     H5 9336   2.834   2.596   3.259 -0.1390 -0.4381  0.8684
  488THF     H6 9337   2.686   2.935   3.368  1.8161 -0.6322  1.8068
  488THF     H7 9338   2.744   2.990   3.227 -1.0208  0.3667  1.4940
  488THF     C8 9339   2.607   2.833   3.190  0.7274 -0.9407  0.4285
  488THF     C9 9340   2.649   2.689   3.184  0.4932  0.1986  0.4637
  488THF    H10 9341   2.593   2.876   3.089 -2.3746  3.3975  0.1981
  488THF    H11 9342   2.513   2.841   3.241 -0.2292  0.2336 -0.7848
  488THF    H12 9343   2.560   2.640   3.223  1.0998  1.4795  1.8811
  488THF    H13 9344   2.674   2.665   3.079 -1.0728  1.1085  0.6178
  489THF     O1 9345   3.387   5.413   4.271  0.1613 -0.8195  0.1194
  489THF     C2 9346   3.522   5.464   4.289  0.3423  1.0617  0.2961
  489THF     C3 9347   3.370   5.317   4.369 -0.2579  0.4360  0.1809
  489THF     H4 9348   3.531   5.522   4.384  1.2783 -0.4476  2.0755
  489THF     H5 9349   3.548   5.527   4.204 -2.0360  0.1133  2.8074
  489THF     H6 9350   3.328   5.366   4.461  2.6641 -1.5971 -2.6455
  489THF     H7 9351   3.293   5.257   4.332  0.4761 -1.4887  1.7529
  489THF     C8 9352   3.510   5.244   4.373  0.4080 -0.1017 -0.0546
  489THF     C9 9353   3.604   5.337   4.291  0.1909  0.0694  0.6022
  489THF    H10 9354   3.512   5.143   4.337  0.1577 -1.4885  0.3782
  489THF    H11 9355   3.547   5.246   4.470 -1.1451 -1.2392 -1.3956
  489THF    H12 9356   3.701   5.339   4.340  0.1544  1.1958 -0.1736
  489THF    H13 9357   3.613   5.307   4.186  1.2927  0.5020 -1.2005
  490THF     O1 9358   0.276   5.342   0.208 -0.1549 -0.3960  0.3244
  490THF     C2 9359   0.255   5.246   0.308 -0.0324  0.0034  0.2983
  490THF     C3 9360   0.254   5.271   0.084  0.6348 -0.5740 -0.8766
  490THF     H4 9361   0.154   5.263   0.346  0.5310 -2.0265  0.3845
  490THF     H5 9362   0.331   5.256   0.383 -0.0723 -0.0363 -0.4327
  490THF     H6 9363   0.151   5.260   0.063 -1.5015  0.2794 -0.1324
  490THF     H7 9364   0.292   5.324  -0.001 -0.4720  0.0119  1.5738
  490THF     C8 9365   0.309   5.131   0.106 -0.2744  0.0113 -0.2779
  490THF     C9 9366   0.254   5.099   0.248  0.5588  0.2234  0.3619
  490THF    H10 9367   0.414   5.149   0.109  1.4972  0.3626  1.1046
  490THF    H11 9368   0.284   5.058   0.030 -1.1715 -1.4583  3.2748
  490THF    H12 9369   0.153   5.056   0.244  0.7735 -1.6202  1.0929
  490THF    H13 9370   0.319   5.043   0.314 -0.2253  0.9110 -1.3419
  491THF     O1 9371   3.256   3.549   3.963  1.0351 -0.1213  0.2988
  491THF     C2 9372   3.343   3.440   3.933 -0.0179  0.0176 -0.1070
  491THF     C3 9373   3.130   3.501   3.966 -0.2086 -0.6225  0.1440
  491THF     H4 9374   3.404   3.428   4.025 -0.0130  2.4829  1.5994
  491THF     H5 9375   3.404   3.464   3.843 -0.3512 -1.5299  1.3316
  491THF     H6 9376   3.085   3.536   4.060 -2.3575  2.0432  1.0112
  491THF     H7 9377   3.074   3.546   3.886  2.8564 -1.0654 -1.0077
  491THF     C8 9378   3.129   3.352   3.961 -0.5224  0.2615 -0.5855
  491THF     C9 9379   3.265   3.320   3.891 -0.5173  0.1118 -0.2691
  491THF    H10 9380   3.047   3.315   3.902 -2.1276 -0.0851  2.4374
  491THF    H11 9381   3.124   3.312   4.060  0.3050  0.2099 -1.1005
  491THF    H12 9382   3.295   3.222   3.911  0.8950 -0.9852  1.8791
  491THF    H13 9383   3.244   3.327   3.787 -1.3489  0.0631  2.0075
  492THF     O1 9384   5.412   1.272   0.963  0.0638 -0.1871  0.0664
  492THF     C2 9385   5.540   1.309   1.015 -0.3527 -0.4044 -0.8712
  492THF     C3 9386   5.379   1.155   1.030  0.5969  0.4971 -0.6474
  492THF     H4 9387   5.510   1.380   1.092 -4.2043  0.0242  0.1626
  492THF     H5 9388   5.598   1.363   0.935  3.4293  1.4518 -0.2101
  492THF     H6 9389   5.333   1.174   1.133 -1.9934  2.2857  0.4747
  492THF     H7 9390   5.318   1.092   0.981 -1.1333 -0.4709 -1.5424
  492THF     C8 9391   5.512   1.073   1.047 -0.8412 -0.4271  0.6887
  492THF     C9 9392   5.616   1.186   1.069  0.0607 -0.2071  0.5056
  492THF    H10 9393   5.539   1.017   0.958 -2.1039 -1.3671  0.4580
  492THF    H11 9394   5.511   1.007   1.133 -1.2476  0.0629 -1.5385
  492THF    H12 9395   5.638   1.197   1.174  2.4540  0.0947  0.4686
  492THF    H13 9396   5.712   1.157   1.030 -0.5422 -1.2024 -0.8631
  493THF     O1 9397   0.668   2.896   1.468 -0.6474  0.1901 -0.4779
  493THF     C2 9398   0.731   2.911   1.600  0.1029  0.1160 -0.2315
  493THF     C3 9399   0.570   2.999   1.455 -0.4838 -0.1469  0.2631
  493THF     H4 9400   0.797   3.000   1.591 -0.2061  1.6255  0.4933
  493THF     H5 9401   0.785   2.814   1.630  0.2458 -1.8460 -0.7651
  493THF     H6 9402   0.617   3.085   1.405  0.6691  3.1370  0.0374
  493THF     H7 9403   0.488   2.992   1.388  2.8541  2.6569  0.6617
  493THF     C8 9404   0.523   3.031   1.597  0.4342  0.6363  0.8407
  493THF     C9 9405   0.627   2.956   1.691  1.1603 -0.4480  0.1500
  493THF    H10 9406   0.419   3.002   1.620 -1.7168  0.0009  0.2764
  493THF    H11 9407   0.514   3.131   1.611  1.3333  0.3406  0.0717
  493THF    H12 9408   0.675   3.017   1.770  1.8952  1.8695 -0.6631
  493THF    H13 9409   0.588   2.865   1.741  1.1216  1.6903  0.9882
  494THF     O1 9410   4.652   3.581   3.725 -0.3890  0.0688 -0.4578
  494THF     C2 9411   4.737   3.571   3.610  0.7058 -0.4398 -0.6428
  494THF     C3 9412   4.522   3.547   3.685  0.7130  0.6127  0.0148
  494THF     H4 9413   4.775   3.466   3.603 -0.6388 -0.4020  2.0436
  494THF     H5 9414   4.815   3.645   3.624 -1.3128  0.5022  0.5498
  494THF     H6 9415   4.520   3.442   3.656 -1.0331 -0.6602 -1.4539
  494THF     H7 9416   4.450   3.568   3.764  0.0253 -1.0467  3.2231
  494THF     C8 9417   4.506   3.627   3.556 -0.4726 -0.2059  0.6219
  494THF     C9 9418   4.641   3.602   3.497 -0.3070 -0.6295  0.4119
  494THF    H10 9419   4.486   3.736   3.571  0.3969 -0.1567  1.4904
  494THF    H11 9420   4.431   3.588   3.494 -0.8859 -1.4069  2.8278
  494THF    H12 9421   4.641   3.503   3.438  0.6545 -1.0971 -2.9193
  494THF    H13 9422   4.681   3.685   3.436  1.0653  2.3234  0.0155
  495THF     O1 9423   4.538   0.717   1.227 -0.1151 -0.0146  0.1822
  495THF     C2 9424   4.410   0.665   1.201 -0.1899  0.2187 -0.2199
  495THF     C3 9425   4.608   0.672   1.114  0.4135 -0.1924  0.0323
  495THF     H4 9426   4.363   0.720   1.126  1.0381 -2.0258  1.5031
  495THF     H5 9427   4.343   0.676   1.290  0.5340  1.6659 -0.4734
  495THF     H6 9428   4.586   0.713   1.014 -0.8250 -0.8511 -2.7412
  495THF     H7 9429   4.722   0.682   1.112  0.7404  1.4262 -1.7474
  495THF     C8 9430   4.572   0.524   1.109  0.0558  0.0667  0.7917
  495THF     C9 9431   4.437   0.516   1.169  0.6901  0.0763 -0.1353
  495THF    H10 9432   4.649   0.475   1.174  0.9716 -1.2712  1.0906
  495THF    H11 9433   4.574   0.474   1.012 -1.6250  0.9462  2.8324
  495THF    H12 9434   4.353   0.467   1.111 -0.6660  1.0770 -1.2371
  495THF    H13 9435   4.434   0.452   1.255  0.0990 -1.0000  2.3059
  496THF     O1 9436   3.573   1.315   3.747 -0.1653 -0.0240 -0.0052
  496THF     C2 9437   3.649   1.227   3.826  0.9890  0.1814 -0.3549
  496THF     C3 9438   3.438   1.273   3.752 -0.2595  0.3792  1.0808
  496THF     H4 9439   3.664   1.263   3.936 -1.4375 -2.8107 -1.4634
  496THF     H5 9440   3.739   1.215   3.777 -1.3031  0.4054  0.8532
  496THF     H6 9441   3.401   1.308   3.848  0.0497  2.0631 -1.8965
  496THF     H7 9442   3.365   1.317   3.679 -0.4504 -0.2198 -1.7129
  496THF     C8 9443   3.434   1.119   3.754 -0.2974  0.6047  0.1169
  496THF     C9 9444   3.574   1.089   3.813 -0.9823  0.8163 -0.0582
  496THF    H10 9445   3.435   1.070   3.656  0.9596  0.3980 -0.6861
  496THF    H11 9446   3.352   1.079   3.811  0.9449  1.8448 -0.9725
  496THF    H12 9447   3.566   1.058   3.915 -0.5679  2.5117  0.1736
  496THF    H13 9448   3.642   1.018   3.756  2.1270  0.3041  1.0410
  497THF     O1 9449   1.851   4.860   3.385  0.2007 -0.7686 -0.1921
  497THF     C2 9450   1.721   4.863   3.337 -0.2673  0.5012  0.6708
  497THF     C3 9451   1.940   4.859   3.280 -0.2886  0.4032  0.3415
  497THF     H4 9452   1.688   4.965   3.345 -1.0085 -2.8490  0.8516
  497THF     H5 9453   1.647   4.802   3.393 -0.0617 -0.2754  2.4519
  497THF     H6 9454   2.011   4.936   3.286  2.5644 -0.8856  3.0751
  497THF     H7 9455   2.000   4.769   3.271 -0.4889 -1.5290  0.7646
  497THF     C8 9456   1.859   4.878   3.147  0.3542  0.4092 -0.4644
  497THF     C9 9457   1.719   4.831   3.186  0.0385 -0.3050 -0.3675
  497THF    H10 9458   1.896   4.805   3.070 -0.5493 -1.9840 -0.1042
  497THF    H11 9459   1.844   4.987   3.122 -0.1154  0.6684  0.1972
  497THF    H12 9460   1.637   4.883   3.136 -2.3099  2.1095  0.9048
  497THF    H13 9461   1.709   4.724   3.169 -0.1553 -0.9879 -2.4958
  498THF     O1 9462   4.540   3.983   3.221 -0.0719 -0.3240 -0.6926
  498THF     C2 9463   4.661   3.911   3.218  0.3724  0.2596 -0.2037
  498THF     C3 9464   4.494   3.969   3.090  0.5869 -1.0964  0.9285
  498THF     H4 9465   4.635   3.804   3.232  4.8544 -1.7070  2.6156
  498THF     H5 9466   4.714   3.954   3.296  0.2016  1.2530 -3.2654
  498THF     H6 9467   4.439   3.875   3.080  0.0428 -1.4031  0.2116
  498THF     H7 9468   4.419   4.046   3.076 -1.9658 -2.1946  0.9803
  498THF     C8 9469   4.618   3.986   3.001 -0.2639  0.3631 -0.0446
  498THF     C9 9470   4.731   3.923   3.082  0.7534 -0.2796 -0.6673
  498THF    H10 9471   4.640   4.091   2.987  2.6712  0.1158 -0.6537
  498THF    H11 9472   4.610   3.943   2.897 -0.1522 -1.6533  2.1305
  498THF    H12 9473   4.757   3.824   3.043 -1.3449 -2.0896 -2.9011
  498THF    H13 9474   4.827   3.979   3.070 -0.7025 -0.6325 -1.6889
  499THF     O1 9475   0.949   2.091   2.837  0.0297 -0.0721  0.3004
  499THF     C2 9476   0.923   2.220   2.897 -0.7865 -0.1916  0.8800
  499THF     C3 9477   0.900   2.080   2.702 -0.4001 -0.1704  0.7283
  499THF     H4 9478   0.986   2.294   2.861  0.1465  0.6192  0.2869
  499THF     H5 9479   0.907   2.224   3.003 -2.2602 -0.1796 -0.1431
  499THF     H6 9480   0.984   2.066   2.624 -0.0569 -0.7326  0.3862
  499THF     H7 9481   0.829   1.993   2.696 -2.6951 -2.9971 -0.6593
  499THF     C8 9482   0.824   2.207   2.680 -0.4892 -0.7743  0.0858
  499THF     C9 9483   0.800   2.263   2.819 -0.2297 -0.5463  0.1893
  499THF    H10 9484   0.726   2.193   2.625  1.7947 -1.5577 -0.0691
  499THF    H11 9485   0.888   2.281   2.624 -0.6088 -0.9748  0.4337
  499THF    H12 9486   0.791   2.374   2.830  4.3309 -0.1449 -0.3299
  499THF    H13 9487   0.706   2.223   2.863  1.8583 -0.7278  1.4852
  500THF     O1 9488   4.813   0.158   3.970  0.3549  0.0513  0.3609
  500THF     C2 9489   4.760   0.053   3.889  0.1687 -0.0861  0.1948
  500THF     C3 9490   4.718   0.266   3.952 -0.1157  0.0025 -0.5446
  500THF     H4 9491   4.679   0.004   3.951 -0.6347 -0.9986 -0.5572
  500THF     H5 9492   4.830  -0.026   3.872 -1.8533  0.1458 -2.8857
  500THF     H6 9493   4.637   0.250   4.025  0.2356 -0.1091  0.2640
  500THF     H7 9494   4.774   0.353   3.974 -1.6818  2.1085 -1.6642
  500THF     C8 9495   4.660   0.252   3.814 -0.5040 -0.6605  0.1436
  500THF     C9 9496   4.712   0.120   3.759 -0.3263 -0.8104 -0.1949
  500THF    H10 9497   4.692   0.330   3.744  4.8222  1.5168 -1.1848
  500THF    H11 9498   4.545   0.246   3.815 -0.9708 -0.4662 -1.3473
  500THF    H12 9499   4.637   0.055   3.707 -0.4984  1.3326  0.6970
  500THF    H13 9500   4.799   0.133   3.695  0.1602  1.4688  1.9423
  501THF     O1 9501   1.859   1.956   1.465 -0.3869  0.0432  0.6117
  501THF     C2 9502   1.992   1.922   1.405 -0.8018  0.5355  0.3593
  501THF     C3 9503   1.839   1.847   1.553  0.4357 -0.2101 -0.1574
  501THF     H4 9504   2.032   2.016   1.377  0.7849  1.2564 -0.1321
  501THF     H5 9505   1.996   1.857   1.320  1.2222  0.6323  2.0332
  501THF     H6 9506   1.761   1.885   1.614 -0.1052 -1.3310 -3.1271
  501THF     H7 9507   1.791   1.761   1.500 -3.3893 -2.5808  1.7431
  501THF     C8 9508   1.976   1.829   1.622  0.4713 -0.3857  0.5877
  501THF     C9 9509   2.075   1.882   1.521  0.8123  0.0290  0.2151
  501THF    H10 9510   1.997   1.734   1.662 -2.0905 -0.5155  4.3746
  501THF    H11 9511   1.974   1.877   1.715  2.0632 -1.1033  0.6908
  501THF    H12 9512   2.122   1.960   1.568 -1.7099  0.6077  0.4203
  501THF    H13 9513   2.148   1.805   1.507 -0.1438 -1.4956 -2.9212
  502THF     O1 9514   4.838   1.580   2.622  0.2808 -0.8440 -0.0697
  502THF     C2 9515   4.791   1.623   2.744  0.5301 -1.2579 -0.0056
  502THF     C3 9516   4.975   1.552   2.636 -0.1152  0.1927  0.1913
  502THF     H4 9517   4.757   1.541   2.807 -0.9684 -0.9704  0.2987
  502THF     H5 9518   4.695   1.673   2.729  0.2725 -2.1313  0.4238
  502THF     H6 9519   4.992   1.450   2.671  2.0832 -0.2660 -0.8435
  502THF     H7 9520   5.035   1.577   2.544  0.1009  0.3416 -0.2228
  502THF     C8 9521   5.030   1.632   2.750  0.1679 -0.2429 -0.1011
  502THF     C9 9522   4.902   1.707   2.797 -0.5628 -0.2374  0.7160
  502THF    H10 9523   5.100   1.707   2.718 -1.9196  1.0438  1.5680
  502THF    H11 9524   5.072   1.573   2.832  0.6404  2.3051 -0.8689
  502THF    H12 9525   4.900   1.727   2.909 -1.1984 -2.7297  0.9290
  502THF    H13 9526   4.913   1.808   2.749  1.3293  1.6965  1.1672
  503THF     O1 9527   0.846   3.275   5.006  0.4809  0.0700 -0.0694
  503THF     C2 9528   0.737   3.330   5.093 -0.3433 -0.2317 -0.6205
  503THF     C3 9529   0.969   3.312   5.066 -0.9555  0.0613  0.1531
  503THF     H4 9530   0.698   3.249   5.159 -0.2880 -0.8085  0.2988
  503THF     H5 9531   0.660   3.373   5.030 -2.0256  1.9856  1.0462
  503THF     H6 9532   0.977   3.242   5.145 -2.2010 -0.5346 -0.5751
  503THF     H7 9533   1.063   3.294   5.016  2.1594 -1.4500 -0.0658
  503THF     C8 9534   0.935   3.451   5.100 -0.8964  0.0252  0.0318
  503THF     C9 9535   0.796   3.443   5.164 -0.2114  0.4312  0.3524
  503THF    H10 9536   0.923   3.503   4.997 -3.3260  0.3056 -0.7896
  503THF    H11 9537   1.014   3.505   5.157 -0.4140 -1.9002  0.7981
  503THF    H12 9538   0.796   3.437   5.274 -0.7366  0.8791  0.5285
  503THF    H13 9539   0.743   3.531   5.135  2.6698 -2.0668  1.8249
  504THF     O1 9540   2.668   1.836   3.649  0.5032  0.1230  0.0800
  504THF     C2 9541   2.692   1.953   3.578 -0.6028 -0.2573 -0.4173
  504THF     C3 9542   2.757   1.830   3.759  0.3044 -0.5175  0.4381
  504THF     H4 9543   2.607   1.980   3.520 -0.7254 -2.3313  2.5446
  504THF     H5 9544   2.779   1.926   3.517 -0.0523 -0.2526 -0.8221
  504THF     H6 9545   2.725   1.750   3.824  0.4887 -0.4788  0.6975
  504THF     H7 9546   2.858   1.819   3.719  1.5420  3.3470 -0.0010
  504THF     C8 9547   2.731   1.966   3.813  0.3385 -0.1317 -0.2622
  504THF     C9 9548   2.722   2.052   3.689 -0.0198  0.0811  0.5167
  504THF    H10 9549   2.809   2.001   3.870  2.0891  0.8650 -3.6495
  504THF    H11 9550   2.637   1.970   3.869 -1.0991 -1.4394 -1.5918
  504THF    H12 9551   2.644   2.125   3.694  1.6288 -2.0229 -1.0260
  504THF    H13 9552   2.819   2.105   3.669  0.5885 -1.5276  1.6450
  505THF     O1 9553   2.289   4.345   3.070  0.3897 -0.1033  0.1639
  505THF     C2 9554   2.414   4.318   3.008 -0.2831 -0.0394 -0.0405
  505THF     C3 9555   2.311   4.402   3.202  0.7593 -0.5406  0.5911
  505THF     H4 9556   2.403   4.307   2.902 -0.5103  1.0868  1.4326
  505THF     H5 9557   2.441   4.224   3.060 -1.2350 -1.2261 -0.1588
  505THF     H6 9558   2.241   4.481   3.204  1.1515 -1.1813  2.9116
  505THF     H7 9559   2.287   4.340   3.286 -0.8259 -1.0391  0.5830
  505THF     C8 9560   2.459   4.450   3.203  0.1909  0.0524 -0.3778
  505THF     C9 9561   2.496   4.440   3.056  0.5787  0.5862 -0.2381
  505THF    H10 9562   2.534   4.385   3.267  1.8125 -0.2095  1.2551
  505THF    H11 9563   2.460   4.556   3.236  0.0437 -1.8479  0.0558
  505THF    H12 9564   2.474   4.527   2.995 -0.3725  0.5693 -1.8277
  505THF    H13 9565   2.601   4.431   3.037  2.0119  0.2400  1.6998
  506THF     O1 9566   2.889   3.838   0.554  0.1308  0.4970  0.0557
  506THF     C2 9567   3.002   3.788   0.615 -0.5670 -0.6144  0.3613
  506THF     C3 9568   2.908   3.975   0.519 -0.2776  0.0951  0.3302
  506THF     H4 9569   3.084   3.771   0.542  0.1622 -1.4847  1.3796
  506THF     H5 9570   2.982   3.690   0.668 -0.0654 -0.8743 -0.7113
  506THF     H6 9571   2.964   3.976   0.425 -1.3613  0.5363 -1.6638
  506THF     H7 9572   2.818   4.029   0.506  0.5247 -0.0034  0.2956
  506THF     C8 9573   2.994   4.030   0.634  0.7707  0.5112  0.4153
  506THF     C9 9574   3.045   3.907   0.705 -1.0426 -0.5282  0.0968
  506THF    H10 9575   2.940   4.078   0.711 -0.4072 -2.6667 -0.2509
  506THF    H11 9576   3.061   4.103   0.598 -2.0138  1.0137  0.7999
  506THF    H12 9577   3.154   3.919   0.711  0.1136 -0.9039  3.6491
  506THF    H13 9578   3.001   3.888   0.805  0.7573  0.8830  2.3915
  507THF     O1 9579   1.483   2.631   3.622  0.9936  0.1735  0.5574
  507THF     C2 9580   1.399   2.620   3.507  0.0177  0.5947 -0.6587
  507THF     C3 9581   1.576   2.531   3.601  0.3993 -0.3664 -0.6056
  507THF     H4 9582   1.328   2.697   3.504 -0.2689 -0.9206  1.3604
  507THF     H5 9583   1.340   2.521   3.511  0.0636  1.8901  0.6603
  507THF     H6 9584   1.671   2.541   3.661  1.3289  0.7255  0.2393
  507THF     H7 9585   1.528   2.431   3.621 -1.0614  1.1683  3.7478
  507THF     C8 9586   1.613   2.554   3.451 -0.7956  0.7277 -0.0188
  507THF     C9 9587   1.496   2.631   3.396 -0.6015 -0.0997  0.0428
  507THF    H10 9588   1.639   2.460   3.391  2.3554 -0.5012  0.8974
  507THF    H11 9589   1.699   2.618   3.428  0.5852  0.1253 -2.8135
  507THF    H12 9590   1.511   2.734   3.377  1.4372 -3.7635  0.8555
  507THF    H13 9591   1.456   2.579   3.306  1.5583  1.9741 -4.3610
  508THF     O1 9592   5.179   4.175   0.995 -0.0637  0.5453  0.8762
  508THF     C2 9593   5.040   4.168   0.960  0.2726  0.6402 -0.4210
  508THF     C3 9594   5.223   4.294   0.945  0.4567 -0.2985 -0.4582
  508THF     H4 9595   4.979   4.204   1.037  1.0262 -0.9182  1.0971
  508THF     H5 9596   5.000   4.067   0.955 -0.8680 -0.3869 -0.1919
  508THF     H6 9597   5.207   4.379   1.013 -1.3295 -2.0390  0.8531
  508THF     H7 9598   5.333   4.286   0.929  1.4324 -1.0164 -1.5197
  508THF     C8 9599   5.168   4.306   0.800 -0.8669  0.4469 -0.8127
  508THF     C9 9600   5.031   4.249   0.829 -0.5088  0.0889 -0.2633
  508THF    H10 9601   5.211   4.232   0.741 -2.0100  2.2903  0.8415
  508THF    H11 9602   5.177   4.407   0.756  0.8549  2.3293  3.4409
  508THF    H12 9603   4.962   4.334   0.847 -1.6936  0.0263 -0.0180
  508THF    H13 9604   4.995   4.195   0.745 -0.1074  0.2195 -1.6051
  509THF     O1 9605   2.439   4.046   3.543 -0.5454 -0.1767 -0.0502
  509THF     C2 9606   2.393   4.163   3.478 -0.1796 -0.0042 -0.0906
  509THF     C3 9607   2.384   4.037   3.671  0.6027 -0.4171  0.4392
  509THF     H4 9608   2.348   4.138   3.387 -0.8526  1.4024  0.8689
  509THF     H5 9609   2.470   4.236   3.470 -1.6195  0.5344  1.5309
  509THF     H6 9610   2.306   3.957   3.678  0.9185  2.2430 -1.3820
  509THF     H7 9611   2.459   4.021   3.745 -1.1083 -3.1352 -0.9986
  509THF     C8 9612   2.327   4.174   3.697 -0.4553  0.1645 -0.1356
  509THF     C9 9613   2.290   4.232   3.562  0.0211  0.2076 -0.1702
  509THF    H10 9614   2.413   4.243   3.723 -0.4803 -0.3525  0.0149
  509THF    H11 9615   2.258   4.167   3.783  2.0743 -0.5265 -2.3689
  509THF    H12 9616   2.183   4.226   3.523 -1.4983  0.0493 -0.1375
  509THF    H13 9617   2.293   4.339   3.556  0.4595  0.9913 -3.0337
  510THF     O1 9618   1.219   4.177   1.186 -0.1140 -0.2966 -0.3474
  510THF     C2 9619   1.148   4.274   1.264 -0.6156  0.5810  1.1525
  510THF     C3 9620   1.251   4.240   1.062 -0.1839  0.0997  0.0367
  510THF     H4 9621   1.166   4.259   1.369 -1.3739  1.2631  0.9190
  510THF     H5 9622   1.045   4.263   1.240 -1.2210  2.2231  1.6633
  510THF     H6 9623   1.335   4.183   1.026 -0.0505 -0.2564  0.3293
  510THF     H7 9624   1.169   4.234   0.998  1.1955  1.6516 -0.5120
  510THF     C8 9625   1.270   4.390   1.095 -0.6181 -0.4268 -0.4689
  510THF     C9 9626   1.215   4.406   1.237 -0.2673 -0.1550 -0.4477
  510THF    H10 9627   1.199   4.452   1.033  1.7338  2.2070 -4.9512
  510THF    H11 9628   1.375   4.435   1.087  2.0144  0.6837 -1.9280
  510THF    H12 9629   1.295   4.386   1.303 -4.9800  1.2696  0.3000
  510THF    H13 9630   1.151   4.488   1.252 -2.2030 -3.2797 -1.1462
  511THF     O1 9631   1.839   1.165   3.468 -0.0607 -0.0668 -0.6212
  511THF     C2 9632   1.939   1.176   3.366  0.4902 -0.5011 -0.1622
  511THF     C3 9633   1.715   1.210   3.405 -0.0287  0.3737 -0.1970
  511THF     H4 9634   1.935   1.084   3.303  1.8566  1.0047  0.4761
  511THF     H5 9635   2.033   1.175   3.413  0.3224  2.2454  0.1873
  511THF     H6 9636   1.661   1.142   3.338 -0.1369 -1.6856  1.4007
  511THF     H7 9637   1.643   1.238   3.482  2.0245 -0.0518 -1.6700
  511THF     C8 9638   1.754   1.318   3.309 -0.4540 -0.3417 -0.6230
  511THF     C9 9639   1.914   1.307   3.291 -0.3399 -0.2743 -0.1903
  511THF    H10 9640   1.733   1.422   3.343 -0.2274 -0.6082  1.2758
  511THF    H11 9641   1.691   1.305   3.221  1.5373  0.5006 -2.5564
  511THF    H12 9642   1.954   1.306   3.186 -0.2336 -0.7663  0.0040
  511THF    H13 9643   1.950   1.398   3.345 -0.4025 -1.9053 -0.2502
  512THF     O1 9644   2.441   3.279   1.248  0.3588 -0.1963 -0.0690
  512THF     C2 9645   2.485   3.331   1.369 -0.4776  0.1248 -0.5701
  512THF     C3 9646   2.516   3.338   1.135  0.0300  0.0643  0.3878
  512THF     H4 9647   2.466   3.269   1.458 -2.3715  0.1333 -1.1211
  512THF     H5 9648   2.430   3.421   1.400  2.2291  0.6755 -1.1761
  512THF     H6 9649   2.510   3.273   1.045  1.9498 -0.5282 -1.8280
  512THF     H7 9650   2.476   3.436   1.109 -1.4836 -0.8649 -1.1269
  512THF     C8 9651   2.650   3.355   1.201  0.4872  0.4097  0.2109
  512THF     C9 9652   2.631   3.333   1.346 -0.2551 -0.8957 -0.0202
  512THF    H10 9653   2.691   3.450   1.179 -0.2040 -1.3422  1.3924
  512THF    H11 9654   2.725   3.296   1.143  1.1913  1.0978  1.1395
  512THF    H12 9655   2.680   3.249   1.376  0.7820  1.2484 -0.1566
  512THF    H13 9656   2.682   3.420   1.389  1.2407 -1.6072 -0.8358
  513THF     O1 9657   3.658   2.811   1.144 -0.7305  0.0440  0.8203
  513THF     C2 9658   3.637   2.918   1.235 -0.1205  0.1354 -0.0042
  513THF     C3 9659   3.583   2.701   1.186 -0.3518 -0.0517  0.0883
  513THF     H4 9660   3.659   3.018   1.189  1.1775  2.5708  0.4249
  513THF     H5 9661   3.706   2.910   1.316  0.1938 -1.1796  1.4871
  513THF     H6 9662   3.560   2.639   1.099 -0.2378  1.3433  0.9681
  513THF     H7 9663   3.643   2.639   1.247 -4.6496  0.8965 -0.6877
  513THF     C8 9664   3.461   2.750   1.255  0.7762 -0.1930 -0.0899
  513THF     C9 9665   3.499   2.903   1.279  0.3086  0.2929 -0.7789
  513THF    H10 9666   3.450   2.686   1.351 -1.0964 -0.9262  0.8423
  513THF    H11 9667   3.371   2.735   1.195 -0.1179  1.4448  2.4851
  513THF    H12 9668   3.426   2.960   1.224 -2.5652  0.8268 -1.3882
  513THF    H13 9669   3.491   2.930   1.387  1.1263  3.4952 -0.0692
  514THF     O1 9670   3.598   3.607   3.736 -0.2253  0.6524 -0.5042
  514THF     C2 9671   3.734   3.584   3.739 -0.9722 -0.0154 -0.1711
  514THF     C3 9672   3.568   3.743   3.761 -0.9005  0.1382  0.0289
  514THF     H4 9673   3.779   3.593   3.642  0.3503  1.7899  1.3967
  514THF     H5 9674   3.748   3.483   3.773 -3.8839  1.7108 -1.9644
  514THF     H6 9675   3.541   3.783   3.666  0.4699  2.0813 -0.3835
  514THF     H7 9676   3.484   3.767   3.827  0.8453 -0.0671  2.2960
  514THF     C8 9677   3.712   3.800   3.803 -0.1543  0.2010 -0.2716
  514THF     C9 9678   3.787   3.678   3.843 -0.2318  0.6868 -0.1003
  514THF    H10 9679   3.705   3.873   3.890 -0.3435  0.6333 -1.7642
  514THF    H11 9680   3.753   3.849   3.719 -3.2683 -1.9017  0.7099
  514THF    H12 9681   3.900   3.676   3.824  3.1760 -1.5931 -1.0220
  514THF    H13 9682   3.768   3.659   3.945 -1.0631  0.8742 -0.7490
  515THF     O1 9683   1.211   0.648   3.501 -0.7390  0.2284  0.0662
  515THF     C2 9684   1.121   0.753   3.550 -0.0574  0.1590  0.3501
  515THF     C3 9685   1.155   0.588   3.387  0.8968  0.2492 -0.8948
  515THF     H4 9686   1.185   0.834   3.580  0.5228 -1.1678  0.7632
  515THF     H5 9687   1.061   0.721   3.634  0.2800 -1.4556  0.7865
  515THF     H6 9688   1.230   0.538   3.332 -3.4227 -3.1452  0.6506
  515THF     H7 9689   1.069   0.526   3.413  0.0049 -0.6985 -0.2001
  515THF     C8 9690   1.097   0.705   3.310 -0.1459  0.3429 -0.0657
  515THF     C9 9691   1.038   0.792   3.428 -0.4195 -0.4087 -0.3678
  515THF    H10 9692   1.029   0.671   3.241  1.8894  0.1965  2.9539
  515THF    H11 9693   1.183   0.756   3.256  0.5637  0.8482 -2.0851
  515THF    H12 9694   1.040   0.900   3.406 -0.5215 -0.4794  1.4711
  515THF    H13 9695   0.932   0.773   3.430  0.4974 -1.8138  0.1725
  516THF     O1 9696   1.894   2.706   0.366  0.2216  0.1036  0.0523
  516THF     C2 9697   1.839   2.772   0.249  0.1406  0.5445 -0.1510
  516THF     C3 9698   1.872   2.798   0.474 -0.2554 -0.9408  0.1026
  516THF     H4 9699   1.728   2.765   0.256  3.4778  1.6602 -0.3781
  516THF     H5 9700   1.869   2.727   0.156  1.9610 -2.8880  1.0955
  516THF     H6 9701   1.770   2.796   0.511 -1.4015 -2.0590 -0.2543
  516THF     H7 9702   1.933   2.788   0.562  0.3786 -3.3471 -0.9019
  516THF     C8 9703   1.901   2.935   0.415 -0.0200  0.3657 -0.6830
  516THF     C9 9704   1.895   2.907   0.265  0.2057 -0.8797  0.0740
  516THF    H10 9705   1.992   2.973   0.464  2.4231  2.0484  0.7301
  516THF    H11 9706   1.825   3.008   0.437  0.7047  1.0610  0.8431
  516THF    H12 9707   1.837   2.978   0.207  2.4723 -1.1976  0.4459
  516THF    H13 9708   1.991   2.911   0.211 -2.1243 -0.9888  0.7135
  517THF     O1 9709   2.069   4.788   5.244  0.0414  0.1587  0.1967
  517THF     C2 9710   2.113   4.791   5.378 -0.3791  0.4966  0.0306
  517THF     C3 9711   2.093   4.914   5.186 -0.1925 -0.9237  0.0232
  517THF     H4 9712   2.215   4.757   5.381 -1.0897 -0.6127  2.0207
  517THF     H5 9713   2.039   4.754   5.440 -0.0277  0.4184  1.9136
  517THF     H6 9714   2.141   4.916   5.095  0.7996  0.2378 -3.5151
  517THF     H7 9715   1.993   4.960   5.163 -0.8596  1.5888 -2.5006
  517THF     C8 9716   2.163   5.006   5.287  0.5284  0.0053  0.5488
  517THF     C9 9717   2.123   4.935   5.416 -0.6131 -0.7367  0.1163
  517THF    H10 9718   2.124   5.109   5.301  0.8814  1.2486  0.4213
  517THF    H11 9719   2.268   5.019   5.274  2.0995 -1.2580  2.7782
  517THF    H12 9720   2.202   4.943   5.489  2.2707  0.3207  0.9922
  517THF    H13 9721   2.034   4.973   5.465  0.1485  1.0372  0.6662
  518THF     O1 9722   1.928   0.278   4.775 -0.0911 -0.3108  0.3119
  518THF     C2 9723   2.046   0.304   4.854 -0.2340 -0.1620 -0.3334
  518THF     C3 9724   1.857   0.169   4.826  0.1459  0.6688  0.5098
  518THF     H4 9725   2.020   0.340   4.953  0.9025 -3.5624 -2.8209
  518THF     H5 9726   2.127   0.362   4.807 -0.3031  1.8156 -1.3279
  518THF     H6 9727   1.798   0.213   4.904  0.5224  0.8851 -3.2057
  518THF     H7 9728   1.792   0.114   4.753 -2.5768 -1.8330 -1.4770
  518THF     C8 9729   1.967   0.083   4.883 -0.1994 -0.0658  0.3421
  518THF     C9 9730   2.096   0.156   4.875  0.6960 -0.4184 -0.3933
  518THF    H10 9731   1.975  -0.018   4.831  2.3435 -0.6400 -2.0505
  518THF    H11 9732   1.944   0.049   4.983  0.2620  0.5604 -0.2919
  518THF    H12 9733   2.171   0.155   4.953 -1.1388 -0.1420  0.1525
  518THF    H13 9734   2.147   0.125   4.786 -0.5072  1.1633 -0.4123
  519THF     O1 9735   2.920   4.557   1.727  0.0210  0.0254 -0.2388
  519THF     C2 9736   2.834   4.648   1.796  0.1365 -0.0719 -0.1157
  519THF     C3 9737   3.022   4.502   1.813 -0.3355  0.4603  0.3845
  519THF     H4 9738   2.728   4.623   1.769  0.1886  1.3640 -4.1061
  519THF     H5 9739   2.865   4.744   1.753 -1.2624 -0.4823  0.6490
  519THF     H6 9740   2.997   4.393   1.845  1.4610  2.7610 -1.3756
  519THF     H7 9741   3.113   4.510   1.757  3.4348 -0.4949 -1.5111
  519THF     C8 9742   3.016   4.595   1.934  0.0479  1.0135  1.0989
  519THF     C9 9743   2.869   4.631   1.942  0.0623  0.0871 -0.5603
  519THF    H10 9744   3.090   4.677   1.926 -0.0938 -1.6379  2.0642
  519THF    H11 9745   3.047   4.539   2.026 -1.2344 -1.3817  1.4246
  519THF    H12 9746   2.819   4.543   1.979 -0.7384 -0.4898  0.4532
  519THF    H13 9747   2.846   4.711   2.017 -0.5018 -1.4774  2.0809
  520THF     O1 9748   0.419   3.293   0.063 -0.4736 -0.0547 -0.2357
  520THF     C2 9749   0.540   3.368   0.053 -0.1909 -0.5993  0.4783
  520THF     C3 9750   0.323   3.390   0.123  0.1338  0.4525 -0.4859
  520THF     H4 9751   0.607   3.336  -0.030  1.4544  0.2809 -0.1050
  520THF     H5 9752   0.606   3.375   0.141  2.7996 -0.4257  0.3699
  520THF     H6 9753   0.239   3.371   0.060  0.2802  1.3563 -1.4483
  520THF     H7 9754   0.319   3.361   0.228 -1.3132 -0.8252  1.3558
  520THF     C8 9755   0.374   3.533   0.106  0.0200  0.3880 -0.0714
  520THF     C9 9756   0.486   3.503   0.013 -0.2796 -0.2450  0.7305
  520THF    H10 9757   0.398   3.572   0.206 -0.0284 -0.5161  0.5838
  520THF    H11 9758   0.302   3.595   0.059  1.6268  0.2325  0.6559
  520THF    H12 9759   0.468   3.498  -0.092 -0.0530  0.1689 -1.6996
  520THF    H13 9760   0.556   3.586   0.024  1.5672 -0.8376  2.2401
  521THF     O1 9761   0.870   4.388   1.059  0.2945  0.0163  0.1452
  521THF     C2 9762   0.903   4.255   1.010 -0.4047  0.7701 -0.1003
  521THF     C3 9763   0.749   4.371   1.137  0.4420 -0.0556  0.1198
  521THF     H4 9764   0.933   4.194   1.092 -0.7518  1.0082 -0.0167
  521THF     H5 9765   0.977   4.266   0.934 -1.2232  0.5136  1.2089
  521THF     H6 9766   0.766   4.331   1.238  1.5451  0.3191 -2.6569
  521THF     H7 9767   0.693   4.461   1.152 -2.8872 -0.6739  0.0218
  521THF     C8 9768   0.670   4.261   1.061 -0.0262 -0.1056 -0.0395
  521THF     C9 9769   0.770   4.209   0.958  0.0469 -0.0179  0.4888
  521THF    H10 9770   0.576   4.300   1.015 -2.1031 -0.0663  0.7042
  521THF    H11 9771   0.648   4.178   1.133 -0.9377  0.1348  1.3727
  521THF    H12 9772   0.745   4.101   0.949 -0.4934 -0.0920 -2.1497
  521THF    H13 9773   0.751   4.241   0.860 -0.2625 -0.5055  0.8120
  522THF     O1 9774   1.786   3.245   0.247 -0.7992 -0.3100 -0.8187
  522THF     C2 9775   1.840   3.275   0.380 -0.3140  0.5891  0.5529
  522THF     C3 9776   1.714   3.361   0.201 -0.4015 -0.3882 -0.2457
  522THF     H4 9777   1.911   3.204   0.406 -1.2480  0.0787  0.3061
  522THF     H5 9778   1.760   3.278   0.450  0.2738  1.7622 -2.2017
  522THF     H6 9779   1.709   3.372   0.086  1.8162  1.8372 -2.7758
  522THF     H7 9780   1.613   3.374   0.239 -0.5547 -1.3141  0.8289
  522THF     C8 9781   1.810   3.477   0.249  0.2050 -0.0352 -0.1321
  522THF     C9 9782   1.907   3.408   0.343 -0.0387 -0.6177 -0.4776
  522THF    H10 9783   1.743   3.558   0.285 -1.7180  2.2730 -1.6082
  522THF    H11 9784   1.882   3.532   0.183  0.8991  2.4121 -2.6371
  522THF    H12 9785   2.003   3.397   0.299  1.9448 -2.1344  1.0845
  522THF    H13 9786   1.919   3.471   0.427  0.6123 -1.9712  0.1833
  523THF     O1 9787   2.423   0.973   1.757 -0.2582 -0.0828 -0.5898
  523THF     C2 9788   2.331   0.936   1.856  0.1709 -0.0809  0.2297
  523THF     C3 9789   2.352   1.022   1.643 -0.0470  0.2923 -0.6096
  523THF     H4 9790   2.307   1.025   1.913  2.6143 -1.7062  0.0981
  523THF     H5 9791   2.380   0.864   1.918 -0.0629  0.8178 -0.7968
  523THF     H6 9792   2.347   1.128   1.647  0.6288 -0.8554  0.3015
  523THF     H7 9793   2.393   0.979   1.551 -2.8377 -2.7189 -2.0088
  523THF     C8 9794   2.212   0.966   1.650  0.4357  0.1380  0.5826
  523THF     C9 9795   2.212   0.880   1.775  0.0498 -0.0009 -0.7186
  523THF    H10 9796   2.188   0.909   1.562 -0.6236  2.2726  1.8062
  523THF    H11 9797   2.143   1.048   1.658  1.2905 -3.2932 -0.2235
  523THF    H12 9798   2.113   0.868   1.816  0.2332 -2.0472 -1.1278
  523THF    H13 9799   2.235   0.775   1.749  0.8752  0.5395 -0.3136
  524THF     O1 9800   1.472   3.472   5.149  0.4620 -0.1022  0.8346
  524THF     C2 9801   1.373   3.365   5.130 -1.0675  0.1978 -0.3816
  524THF     C3 9802   1.547   3.457   5.268 -0.7145 -0.3828  0.8125
  524THF     H4 9803   1.432   3.270   5.111  1.7597 -0.4835 -0.4675
  524THF     H5 9804   1.292   3.390   5.058  0.9418  1.1723 -1.6892
  524THF     H6 9805   1.624   3.381   5.259  1.6495 -1.7363  0.5781
  524THF     H7 9806   1.595   3.551   5.287  1.8429 -0.9358 -1.9578
  524THF     C8 9807   1.435   3.413   5.360  0.2643 -0.2895  0.1800
  524THF     C9 9808   1.329   3.342   5.270 -0.2042 -0.3192 -0.0817
  524THF    H10 9809   1.393   3.504   5.405 -0.3823 -0.1481 -0.0841
  524THF    H11 9810   1.472   3.357   5.445 -1.8070 -1.2217 -0.6146
  524THF    H12 9811   1.313   3.237   5.298  0.6947 -1.3678 -0.6028
  524THF    H13 9812   1.237   3.390   5.270 -1.4193 -2.5087 -0.5067
  525THF     O1 9813   0.887   3.524   1.518 -0.1172 -0.0233 -0.8617
  525THF     C2 9814   0.780   3.469   1.440  0.4942 -0.1883  0.0482
  525THF     C3 9815   0.982   3.424   1.550  0.3553 -0.6062 -0.6973
  525THF     H4 9816   0.768   3.513   1.334 -2.3756  0.4000  1.7728
  525THF     H5 9817   0.690   3.503   1.493 -4.2416  1.6263  1.0772
  525THF     H6 9818   1.050   3.421   1.464  0.4110 -1.3186 -0.9666
  525THF     H7 9819   1.030   3.441   1.648  1.6737 -0.8258 -0.5904
  525THF     C8 9820   0.898   3.299   1.553 -0.2114 -0.7852  0.3434
  525THF     C9 9821   0.798   3.322   1.447 -0.1751 -1.3901  0.2596
  525THF    H10 9822   0.863   3.290   1.654 -2.8228 -0.9744 -1.2372
  525THF    H11 9823   0.961   3.215   1.550 -1.1442  2.7970  2.2151
  525THF    H12 9824   0.834   3.288   1.350  1.7442 -1.5395 -0.9373
  525THF    H13 9825   0.701   3.275   1.464 -0.6358  1.9903  0.2774
  526THF     O1 9826   0.009   3.004   3.307  0.1640 -0.0489  0.3123
  526THF     C2 9827   0.102   3.114   3.339 -0.1283  0.1119  0.7082
  526THF     C3 9828  -0.022   2.946   3.433  0.3404  0.0164  0.7698
  526THF     H4 9829   0.050   3.195   3.395  1.7433  0.3753  1.7009
  526THF     H5 9830   0.143   3.152   3.250 -2.7971 -0.7554 -1.5789
  526THF     H6 9831  -0.088   3.005   3.494 -0.5966  0.9917  1.1291
  526THF     H7 9832  -0.074   2.848   3.417  1.6216 -0.9891 -0.3244
  526THF     C8 9833   0.117   2.933   3.495  0.1482  0.3163  0.2312
  526THF     C9 9834   0.196   3.047   3.436 -0.6515 -0.1115  0.6291
  526THF    H10 9835   0.163   2.838   3.457  2.5708  0.5866 -2.3529
  526THF    H11 9836   0.119   2.942   3.604 -0.0157  0.6663  1.1307
  526THF    H12 9837   0.225   3.116   3.514 -0.7663 -0.3009  1.1003
  526THF    H13 9838   0.283   3.019   3.378 -1.4506  2.3644  2.0758
  527THF     O1 9839   5.084   4.004   2.978  0.0751  0.2701  0.1103
  527THF     C2 9840   5.047   4.142   2.993 -0.0254  0.1175 -0.0196
  527THF     C3 9841   5.158   4.000   2.859  0.3934  0.0850 -0.2718
  527THF     H4 9842   5.021   4.166   3.102  0.7101 -0.8678 -0.6359
  527THF     H5 9843   4.967   4.182   2.920 -1.3636  0.2814 -0.9037
  527THF     H6 9844   5.215   3.905   2.847 -0.5643 -0.4926 -0.1385
  527THF     H7 9845   5.103   4.006   2.761  0.2468 -0.4253 -0.2009
  527THF     C8 9846   5.258   4.110   2.881 -0.6373  0.0663  0.0568
  527THF     C9 9847   5.177   4.215   2.965 -0.2723 -0.4116  0.3687
  527THF    H10 9848   5.301   4.155   2.795  0.2090  1.2343  0.4201
  527THF    H11 9849   5.340   4.087   2.946 -2.1928 -1.2988 -2.5258
  527THF    H12 9850   5.232   4.245   3.062  3.7709  2.3710 -0.7742
  527THF    H13 9851   5.163   4.306   2.910 -1.8225 -0.8760  0.6927
  528THF     O1 9852   0.476   3.465   0.446  0.0290 -0.5269  0.0863
  528THF     C2 9853   0.608   3.398   0.436 -0.6285 -0.9448  0.3251
  528THF     C3 9854   0.440   3.475   0.583  0.0288  0.2760 -0.2403
  528THF     H4 9855   0.680   3.475   0.413  0.3394  1.1263  0.3160
  528THF     H5 9856   0.619   3.323   0.354  2.5166  1.5056 -0.1246
  528THF     H6 9857   0.484   3.566   0.624 -1.0195 -0.5539  0.8109
  528THF     H7 9858   0.331   3.483   0.598 -1.4463 -0.6444 -3.8864
  528THF     C8 9859   0.503   3.346   0.648 -0.2058 -0.7159 -0.0107
  528THF     C9 9860   0.635   3.351   0.580  0.2416 -0.1409 -0.6051
  528THF    H10 9861   0.455   3.252   0.624 -0.8174 -1.6861  3.3940
  528THF    H11 9862   0.521   3.349   0.756 -0.3070  0.7646 -1.9524
  528THF    H12 9863   0.711   3.414   0.625  0.1219 -1.6465 -4.9904
  528THF    H13 9864   0.677   3.252   0.574 -2.3211 -1.0743 -0.5598
  529THF     O1 9865   0.493   2.568   5.389 -0.1578 -0.1458  0.0304
  529THF     C2 9866   0.549   2.463   5.312 -0.5030 -0.0886  0.1675
  529THF     C3 9867   0.374   2.596   5.320 -0.0231  0.8042  0.5012
  529THF     H4 9868   0.529   2.363   5.353 -3.8501  1.3748 -0.0568
  529THF     H5 9869   0.654   2.464   5.321 -0.6018 -1.3295  0.6326
  529THF     H6 9870   0.313   2.510   5.362  3.0159  0.1790 -0.5443
  529THF     H7 9871   0.328   2.679   5.361 -0.2417  0.9660 -0.2965
  529THF     C8 9872   0.378   2.592   5.171  0.4262 -0.6279  0.1762
  529THF     C9 9873   0.493   2.486   5.165  0.0185 -0.6217 -0.3596
  529THF    H10 9874   0.414   2.688   5.143  0.9886 -3.3433 -0.9418
  529THF    H11 9875   0.289   2.562   5.114  0.5427 -3.2860 -1.9406
  529THF    H12 9876   0.462   2.397   5.114 -2.2654 -1.9255 -1.4616
  529THF    H13 9877   0.565   2.522   5.095  1.2970  0.0191 -0.0191
  530THF     O1 9878   3.013   3.574   1.143  0.9524 -0.4220  0.3524
  530THF     C2 9879   2.986   3.494   1.031 -0.3164  0.0481  0.2079
  530THF     C3 9880   3.018   3.488   1.252  0.2072  0.0567  0.6734
  530THF     H4 9881   3.003   3.551   0.934 -1.8336 -0.6301  0.7156
  530THF     H5 9882   2.885   3.480   1.036  1.8387  2.3012 -3.3092
  530THF     H6 9883   3.085   3.538   1.334 -1.8060 -1.1756  1.3991
  530THF     H7 9884   2.921   3.469   1.299  0.2950 -0.4074  0.1142
  530THF     C8 9885   3.091   3.365   1.206  0.2964  0.2723 -0.4813
  530THF     C9 9886   3.066   3.368   1.053 -0.5301  0.0997  0.3502
  530THF    H10 9887   3.045   3.269   1.238  2.7066  0.5760  1.5859
  530THF    H11 9888   3.197   3.364   1.236 -0.4947 -1.6128  1.5752
  530THF    H12 9889   3.166   3.367   1.000  0.3153  0.9812  1.1795
  530THF    H13 9890   3.012   3.279   1.014  1.3048  1.3261  0.2757
  531THF     O1 9891   2.607   1.328   5.122 -0.3087  0.3517 -0.6075
  531THF     C2 9892   2.494   1.314   5.046  0.7011  0.7572 -0.3567
  531THF     C3 9893   2.604   1.240   5.232 -0.0228  0.2877 -0.1258
  531THF     H4 9894   2.520   1.326   4.942  2.9871 -0.2052  3.7580
  531THF     H5 9895   2.417   1.384   5.067  2.5819  3.1892 -0.7295
  531THF     H6 9896   2.708   1.205   5.249  0.7232 -1.8752  0.0407
  531THF     H7 9897   2.572   1.270   5.334 -1.1277  0.4468 -2.2374
  531THF     C8 9898   2.514   1.122   5.197 -0.5748  0.3559  0.3831
  531THF     C9 9899   2.445   1.172   5.069 -0.0206  0.6383 -0.5999
  531THF    H10 9900   2.443   1.115   5.278  1.5619 -1.3393 -0.3819
  531THF    H11 9901   2.570   1.029   5.182  1.1513  1.2333  1.1191
  531THF    H12 9902   2.459   1.108   4.978 -1.9391 -1.3681  3.0791
  531THF    H13 9903   2.333   1.174   5.080 -0.0640 -1.6864  1.3191
  532THF     O1 9904   3.929   1.979   1.939 -0.5400  1.5054  0.2362
  532THF     C2 9905   3.883   1.957   2.065 -0.0343  0.3785 -0.0739
  532THF     C3 9906   3.884   1.876   1.857 -0.6513 -0.9981  0.0645
  532THF     H4 9907   3.782   2.002   2.074 -1.0877  0.6765 -2.1445
  532THF     H5 9908   3.957   1.984   2.139 -2.0785 -1.2010 -0.6191
  532THF     H6 9909   3.780   1.881   1.824 -0.6770  0.2259 -2.0443
  532THF     H7 9910   3.946   1.868   1.767 -1.4531 -0.2160  1.0925
  532THF     C8 9911   3.892   1.744   1.937  0.2417 -0.6878 -0.6040
  532THF     C9 9912   3.867   1.801   2.075 -0.2252  0.0524 -0.1353
  532THF    H10 9913   3.995   1.696   1.937  0.1892 -0.6459 -1.1665
  532THF    H11 9914   3.816   1.676   1.904 -0.5275 -0.9383  2.0977
  532THF    H12 9915   3.761   1.778   2.092 -2.6076 -0.3546 -0.0332
  532THF    H13 9916   3.935   1.751   2.143  0.1429 -0.7525  1.2340
  533THF     O1 9917   3.985   0.280   3.870 -0.5346 -0.3774 -1.0828
  533THF     C2 9918   3.976   0.409   3.927  0.2627  0.1887  0.4028
  533THF     C3 9919   3.977   0.277   3.728  0.4281 -0.1987  1.0640
  533THF     H4 9920   4.076   0.439   3.959  0.1537 -1.2071  1.6054
  533THF     H5 9921   3.914   0.411   4.012  0.3889 -0.3848  0.0791
  533THF     H6 9922   4.073   0.295   3.681  3.1872 -0.7769  0.4981
  533THF     H7 9923   3.941   0.180   3.677 -0.9973  0.1389  1.2262
  533THF     C8 9924   3.882   0.400   3.712 -0.7293  0.3109  0.0891
  533THF     C9 9925   3.931   0.500   3.815 -0.1779 -0.1579  0.0123
  533THF    H10 9926   3.784   0.370   3.739  0.1972 -1.0895  0.8071
  533THF    H11 9927   3.882   0.444   3.613 -2.5209 -2.4874  0.7462
  533THF    H12 9928   4.017   0.546   3.776 -0.2804 -2.7337  1.7741
  533THF    H13 9929   3.854   0.574   3.847  2.5279 -0.9112  0.8970
  534THF     O1 9930   1.930   1.613   1.181  0.2151  0.0466 -0.6523
  534THF     C2 9931   1.918   1.570   1.049  0.5219  0.3889  0.7662
  534THF     C3 9932   1.810   1.681   1.215  0.3531  0.6881  0.9119
  534THF     H4 9933   1.980   1.489   1.010 -3.0504 -0.7632  2.3468
  534THF     H5 9934   1.949   1.661   1.000 -0.9371 -1.5587  1.7569
  534THF     H6 9935   1.780   1.649   1.316 -2.6080  1.9775  1.6929
  534THF     H7 9936   1.824   1.791   1.217  4.0220 -1.3181  0.8834
  534THF     C8 9937   1.705   1.645   1.113 -0.3829  0.1009 -0.7549
  534THF     C9 9938   1.767   1.543   1.027  0.6633 -0.5578  0.1384
  534THF    H10 9939   1.681   1.730   1.054  2.2744  0.1646  1.3283
  534THF    H11 9940   1.608   1.613   1.154 -2.3241  1.3221 -1.5096
  534THF    H12 9941   1.756   1.445   1.074 -0.9857  0.4874  1.2046
  534THF    H13 9942   1.735   1.551   0.923  2.5293 -0.4472 -2.2128
  535THF     O1 9943   2.475   1.014   0.533  0.8413 -0.1544 -0.5846
  535THF     C2 9944   2.511   1.150   0.565 -0.7397  0.5453  0.2905
  535THF     C3 9945   2.557   0.926   0.607 -0.0910  0.5976  0.6820
  535THF     H4 9946   2.430   1.216   0.534  0.2530  0.3116 -1.7045
  535THF     H5 9947   2.604   1.168   0.514  1.2178  2.0342 -1.4931
  535THF     H6 9948   2.511   0.824   0.606  0.9161 -2.1506 -1.5573
  535THF     H7 9949   2.663   0.926   0.570  0.4738  3.3375 -0.6336
  535THF     C8 9950   2.548   0.997   0.744  0.1026  0.7000  0.3795
  535THF     C9 9951   2.547   1.147   0.716  0.2153 -1.0486  0.2213
  535THF    H10 9952   2.636   0.969   0.808 -2.1081  2.7146  0.5413
  535THF    H11 9953   2.459   0.966   0.798 -0.4860  1.6774  0.9687
  535THF    H12 9954   2.477   1.205   0.780  0.7380 -1.2876  3.7075
  535THF    H13 9955   2.636   1.202   0.709 -0.9379 -1.2445 -2.6808
  536THF     O1 9956   5.440   0.028   3.555  0.2404  0.1834  0.7131
  536THF     C2 9957   5.446  -0.111   3.579  0.2542 -0.0881 -0.2259
  536THF     C3 9958   5.301   0.056   3.563 -0.3955 -0.3394 -0.0054
  536THF     H4 9959   5.551  -0.146   3.588  0.1271  1.1314 -0.3008
  536THF     H5 9960   5.401  -0.167   3.503  1.8748 -0.7478  2.1624
  536THF     H6 9961   5.291   0.166   3.564 -0.8082  2.2967 -1.0777
  536THF     H7 9962   5.244   0.020   3.476 -0.1561  1.0253  0.1089
  536THF     C8 9963   5.264  -0.015   3.694 -0.3467 -0.7481  0.4924
  536THF     C9 9964   5.373  -0.120   3.710 -0.4283 -0.3423  0.3367
  536THF    H10 9965   5.164  -0.048   3.681 -1.4720 -1.0295 -2.5027
  536THF    H11 9966   5.261   0.068   3.770 -2.2045 -0.6866 -0.3984
  536THF    H12 9967   5.435  -0.079   3.791  0.3088 -0.0260 -1.5866
  536THF    H13 9968   5.328  -0.215   3.738  1.3262 -1.3271 -0.4784
  537THF     O1 9969   1.232   4.614   3.531  0.3641 -0.1934  0.2625
  537THF     C2 9970   1.316   4.504   3.528 -0.5538 -0.7398  0.4307
  537THF     C3 9971   1.111   4.583   3.599 -0.3902  0.0058  0.4242
  537THF     H4 9972   1.366   4.482   3.618  0.8457  0.1342 -2.2057
  537THF     H5 9973   1.390   4.512   3.456  5.5745 -1.0369  1.6928
  537THF     H6 9974   1.130   4.588   3.705  0.2643  0.8727 -2.4133
  537THF     H7 9975   1.033   4.652   3.567  1.2931 -0.7198 -0.8347
  537THF     C8 9976   1.077   4.446   3.545 -0.1140  0.4026 -0.6098
  537THF     C9 9977   1.215   4.390   3.506  0.7197 -0.1179  0.0250
  537THF    H10 9978   1.023   4.462   3.452  0.2996  0.2043  0.3080
  537THF    H11 9979   1.009   4.382   3.608 -2.2052 -2.0941 -0.5482
  537THF    H12 9980   1.228   4.292   3.564 -0.5762 -0.4737  0.2396
  537THF    H13 9981   1.217   4.360   3.408  1.0031  0.5450  0.5861
  538THF     O1 9982   1.975   3.265   2.064  0.6486 -0.1418  0.0374
  538THF     C2 9983   1.847   3.266   2.019 -0.2618 -0.2526  0.6603
  538THF     C3 9984   2.003   3.409   2.079 -0.6686  0.8433 -0.2346
  538THF     H4 9985   1.797   3.185   2.059  1.6124 -1.4110  1.7494
  538THF     H5 9986   1.822   3.272   1.909  1.8063  0.0888  0.7285
  538THF     H6 9987   2.096   3.420   2.139 -1.3342  1.4069  2.2647
  538THF     H7 9988   2.007   3.459   1.982 -1.0717  0.3678 -2.1491
  538THF     C8 9989   1.882   3.468   2.143 -0.2170  0.0807  0.6407
  538THF     C9 9990   1.774   3.386   2.076 -0.0856 -0.8786  0.6842
  538THF    H10 9991   1.882   3.581   2.132 -0.1189  0.7867  0.0669
  538THF    H11 9992   1.888   3.429   2.247 -0.9611  1.2611 -0.4570
  538THF    H12 9993   1.698   3.354   2.144  0.3725  0.0135  0.9330
  538THF    H13 9994   1.728   3.454   2.005  4.0912  0.8578  0.6937
  539THF     O1 9995   5.098   5.466   5.419 -0.0417 -0.0013 -0.4947
  539THF     C2 9996   5.201   5.526   5.504 -0.2134 -0.6759 -0.4184
  539THF     C3 9997   5.059   5.574   5.330 -0.1153 -0.4890  1.4630
  539THF     H4 9998   5.297   5.524   5.450 -1.1077 -0.2541 -1.9987
  539THF     H5 9999   5.223   5.471   5.600  1.1364 -0.8078 -0.6920
  539THF     H610000   5.138   5.595   5.267 -2.0795 -0.2759 -1.2187
  539THF     H710001   4.966   5.550   5.287  0.1295 -2.6850  1.7348
  539THF     C810002   5.036   5.682   5.435 -0.2908 -0.7329 -0.0364
  539THF     C910003   5.152   5.667   5.525 -0.1599  0.3883  0.6826
  539THF    H1010004   4.934   5.658   5.479 -2.0906 -0.4059 -0.2181
  539THF    H1110005   5.041   5.780   5.378  1.8938  1.2986 -0.6563
  539THF    H1210006   5.236   5.733   5.492 -0.6499  0.3200  1.4693
  539THF    H1310007   5.115   5.695   5.628  2.2952 -1.5721 -4.2658
  540THF     O110008   1.154   5.289   0.457 -0.0523  0.5991  0.6521
  540THF     C210009   1.088   5.297   0.583  0.4361  0.1270 -0.0103
  540THF     C310010   1.126   5.161   0.393 -0.4011  0.5165  0.0742
  540THF     H410011   1.081   5.402   0.609 -0.3401 -1.0978  0.0622
  540THF     H510012   1.130   5.235   0.658  0.1814 -2.2629  1.1519
  540THF     H610013   1.129   5.172   0.287 -0.5174  1.4513  2.0702
  540THF     H710014   1.201   5.091   0.437  1.6913 -1.3659  3.6815
  540THF     C810015   0.982   5.133   0.440  0.7515 -0.3532  0.0236
  540THF     C910016   0.951   5.238   0.545  0.4371 -0.0087 -0.9866
  540THF    H1010017   0.975   5.030   0.484 -0.1336 -2.6656  2.0999
  540THF    H1110018   0.917   5.127   0.355  1.4825  0.0264  0.3515
  540THF    H1210019   0.893   5.322   0.500 -2.0492  0.7631 -0.4296
  540THF    H1310020   0.894   5.197   0.627  2.0978 -0.6353  0.3308
  541THF     O110021   1.727   0.808   1.909 -0.1174 -0.2611 -0.0444
  541THF     C210022   1.590   0.849   1.900  0.0913  0.0718 -0.0275
  541THF     C310023   1.755   0.743   1.786  0.4177  0.1222  0.7622
  541THF     H410024   1.586   0.945   1.851  0.4033 -0.5802  1.3265
  541THF     H510025   1.550   0.864   2.002  2.6389  0.4931 -0.9572
  541THF     H610026   1.756   0.814   1.706  1.5581 -1.2788  2.5062
  541THF     H710027   1.849   0.694   1.794 -2.3091 -2.2299 -1.4459
  541THF     C810028   1.624   0.654   1.759 -0.5324 -0.0847 -0.0856
  541THF     C910029   1.509   0.732   1.828  0.6601 -0.1480 -0.5844
  541THF    H1010030   1.637   0.569   1.823  1.8358  1.5931 -1.2345
  541THF    H1110031   1.607   0.617   1.658  0.4461 -0.6816  3.8980
  541THF    H1210032   1.435   0.776   1.756  0.2874 -0.2837 -3.3886
  541THF    H1310033   1.457   0.667   1.899 -0.6995  0.9203 -0.8138
  542THF     O110034   2.612   3.468   5.314 -0.1857 -0.0719  0.1397
  542THF     C210035   2.687   3.469   5.429  0.0318 -0.2674  0.4234
  542THF     C310036   2.493   3.391   5.333 -0.7105 -0.3316 -0.3122
  542THF     H410037   2.658   3.540   5.502  1.3604  1.3889 -0.6676
  542THF     H510038   2.789   3.481   5.402 -2.3002 -0.2820  1.2709
  542THF     H610039   2.419   3.450   5.385 -0.5701  0.9403  0.2473
  542THF     H710040   2.452   3.355   5.239  0.0641 -0.1159  2.1205
  542THF     C810041   2.547   3.272   5.414 -0.5928  0.0778  1.2957
  542THF     C910042   2.664   3.332   5.488 -1.1555  0.3640  0.4090
  542THF    H1010043   2.588   3.203   5.341  1.1239  1.9987  0.0509
  542THF    H1110044   2.473   3.217   5.468 -0.2434  1.3019 -1.5161
  542THF    H1210045   2.636   3.340   5.595 -0.6157 -1.7028 -0.2299
  542THF    H1310046   2.760   3.272   5.490 -0.0371 -0.6989  1.7454
  543THF     O110047   4.722   5.267   3.862  0.2417 -0.0330  0.3421
  543THF     C210048   4.828   5.188   3.920  0.0534  0.1519  0.0715
  543THF     C310049   4.597   5.207   3.876  0.7042  0.7545 -0.9202
  543THF     H410050   4.892   5.255   3.966 -0.3356  3.5923 -1.1193
  543THF     H510051   4.880   5.128   3.843  0.5852 -1.9928  3.0009
  543THF     H610052   4.533   5.272   3.936 -2.4786  2.0009  0.5266
  543THF     H710053   4.540   5.199   3.784 -1.0344 -2.2143  0.6504
  543THF     C810054   4.618   5.091   3.971  0.2785 -0.3606  0.9733
  543THF     C910055   4.754   5.109   4.028  0.2763 -0.1361  0.2780
  543THF    H1010056   4.607   4.997   3.913 -0.3372 -0.2150  0.2510
  543THF    H1110057   4.543   5.076   4.044  0.7661 -2.8963  0.6933
  543THF    H1210058   4.746   5.169   4.120  1.6076 -0.9098  0.4801
  543THF    H1310059   4.798   5.008   4.050 -0.8046  0.1584 -1.0312
  544THF     O110060   5.225   0.533   3.793 -0.4277 -0.6886  0.1530
  544THF     C210061   5.099   0.591   3.754 -0.2814 -0.1347  0.0484
  544THF     C310062   5.217   0.388   3.750  0.8715 -0.2355  0.5260
  544THF     H410063   5.089   0.633   3.657 -0.1003  1.6769 -0.3694
  544THF     H510064   5.070   0.668   3.816 -1.3308 -1.6916 -1.1398
  544THF     H610065   5.217   0.391   3.643 -2.3988 -0.9438 -1.0366
  544THF     H710066   5.305   0.333   3.788  0.2167 -0.3703 -2.4592
  544THF     C810067   5.078   0.353   3.792  0.5774  0.1000  0.1951
  544THF     C910068   4.994   0.482   3.790  0.3471 -0.5792  0.3315
  544THF    H1010069   5.076   0.320   3.895 -1.1498 -0.4651 -0.9513
  544THF    H1110070   5.038   0.273   3.733 -1.3093 -1.5000  1.6783
  544THF    H1210071   4.930   0.470   3.704  1.5796 -0.2394 -0.4158
  544THF    H1310072   4.942   0.513   3.876  0.7938  0.8072 -1.9357
  545THF     O110073   5.403   4.964   0.238 -0.3954  0.5560  0.1426
  545THF     C210074   5.456   4.946   0.104  0.0540 -0.2625 -0.0826
  545THF     C310075   5.299   5.054   0.240  0.4384  0.1304  0.0691
  545THF     H410076   5.407   4.867   0.060 -0.0347  0.5698  1.2714
  545THF     H510077   5.565   4.913   0.095  2.6878 -2.1197  2.1879
  545THF     H610078   5.212   5.007   0.189  1.9726 -0.8975 -1.1893
  545THF     H710079   5.273   5.097   0.334  0.8806 -1.5463  0.8629
  545THF     C810080   5.349   5.165   0.135  0.0375  0.1168 -0.2191
  545THF     C910081   5.409   5.076   0.029 -0.0957 -0.1075 -0.4336
  545THF    H1010082   5.422   5.244   0.171 -0.5447 -0.1396  2.1370
  545THF    H1110083   5.261   5.213   0.095  0.4143 -0.5720 -0.3558
  545THF    H1210084   5.331   5.046  -0.035  1.0376 -0.0008 -0.0459
  545THF    H1310085   5.486   5.128  -0.026  1.7914 -0.6571  0.7672
  546THF     O110086   5.303   5.243   2.261  0.1336  0.6493  0.0857
  546THF     C210087   5.399   5.351   2.244  0.4832  0.2876  0.1341
  546THF     C310088   5.375   5.126   2.271 -0.2628 -0.1631  0.1500
  546THF     H410089   5.350   5.450   2.256 -0.5942  1.1327  6.3885
  546THF     H510090   5.454   5.342   2.143  0.0803 -0.1733 -2.6089
  546THF     H610091   5.321   5.037   2.313 -0.0249  0.2855  0.1384
  546THF     H710092   5.418   5.087   2.182  1.9268  1.7507  1.3989
  546THF     C810093   5.488   5.173   2.354 -0.4765 -0.1507  0.3283
  546THF     C910094   5.507   5.324   2.343  0.4479  0.5265  0.7053
  546THF    H1010095   5.580   5.121   2.322 -0.9845 -0.1199 -1.7812
  546THF    H1110096   5.469   5.143   2.460 -0.5000 -0.0694  1.2371
  546THF    H1210097   5.485   5.374   2.433 -1.8194  1.4602  0.9441
  546THF    H1310098   5.601   5.348   2.306  0.0185 -1.2260 -0.3916
  547THF     O110099   3.993   3.006   4.590 -0.2374  0.1190 -0.2195
  547THF     C210100   4.102   2.933   4.633  0.2700  0.4253  0.5365
  547THF     C310101   3.891   2.916   4.549 -0.3008  0.0000 -0.2036
  547THF     H410102   4.152   2.986   4.711 -1.9460  0.2556 -2.6935
  547THF     H510103   4.172   2.926   4.550  0.3525 -0.6740  2.2563
  547THF     H610104   3.806   2.911   4.612  1.9649 -1.5531  1.4939
  547THF     H710105   3.851   2.932   4.448  1.4117 -2.1429 -1.9179
  547THF     C810106   3.950   2.781   4.557 -0.2886  0.4593 -0.1825
  547THF     C910107   4.047   2.796   4.668 -0.0063 -0.2774 -0.3421
  547THF    H1010108   4.003   2.763   4.458 -0.2580  0.0847  0.1419
  547THF    H1110109   3.877   2.703   4.573 -0.0952  0.5737 -0.7288
  547THF    H1210110   3.995   2.794   4.764  0.9564 -2.6809 -0.9867
  547THF    H1310111   4.127   2.730   4.670  0.5770  0.0925  0.9946
  548THF     O110112   3.086   4.608   3.188  0.6173 -0.5759 -0.4219
  548THF     C210113   3.067   4.609   3.327 -1.0510  0.3053  0.3231
  548THF     C310114   3.214   4.671   3.174  0.4695  0.0717  0.2918
  548THF     H410115   3.125   4.528   3.376  1.0211  1.6231  0.2745
  548THF     H510116   2.963   4.586   3.344  0.2933 -2.7929  0.4294
  548THF     H610117   3.295   4.606   3.198 -0.8721  2.3018 -1.5453
  548THF     H710118   3.226   4.708   3.072 -2.3285  0.9299 -1.9531
  548THF     C810119   3.211   4.790   3.269 -0.0831  0.8674  0.4077
  548THF     C910120   3.097   4.748   3.368  0.7723  0.6014 -0.0137
  548THF    H1010121   3.175   4.881   3.210 -0.2708 -1.5679 -0.5071
  548THF    H1110122   3.312   4.797   3.316  1.8080 -2.1181  0.3365
  548THF    H1210123   3.120   4.743   3.471 -1.3989  0.7583 -0.1198
  548THF    H1310124   2.996   4.805   3.361 -1.4331 -1.8742 -1.0187
  549THF     O110125   3.120   3.270   4.849 -0.1045  0.0988 -0.2538
  549THF     C210126   3.105   3.136   4.818 -0.4896 -0.0815  0.0734
  549THF     C310127   3.256   3.285   4.893 -0.5601 -0.3404 -0.5656
  549THF     H410128   3.148   3.124   4.719  1.0895  0.0463 -2.7690
  549THF     H510129   2.999   3.107   4.816  1.5580  0.9064 -1.7682
  549THF     H610130   3.309   3.298   4.802  0.8529  1.4969  2.1884
  549THF     H710131   3.266   3.376   4.952  2.3419 -0.5824 -1.0815
  549THF     C810132   3.288   3.157   4.974 -0.4459  0.1159  0.1551
  549THF     C910133   3.190   3.057   4.916 -0.4221 -0.1697  0.2828
  549THF    H1010134   3.272   3.181   5.076  1.1123  1.2480  2.9726
  549THF    H1110135   3.394   3.122   4.950  1.9004 -0.7247 -1.5672
  549THF    H1210136   3.233   2.965   4.866  0.8140  0.2132 -1.5395
  549THF    H1310137   3.129   3.031   4.999  0.1526 -0.0823 -0.0461
  550THF     O110138   5.205   5.419   1.420  0.3684 -0.2734 -0.4663
  550THF     C210139   5.335   5.471   1.448 -0.0169  0.4851 -0.6883
  550THF     C310140   5.204   5.281   1.454  0.2092 -0.7700 -0.9464
  550THF     H410141   5.340   5.530   1.536 -1.3984 -0.4721  0.7252
  550THF     H510142   5.362   5.529   1.363 -2.7994  0.7595 -0.0515
  550THF     H610143   5.176   5.273   1.560 -4.3382 -0.1088  0.0733
  550THF     H710144   5.136   5.216   1.400 -0.0269  0.4488  2.9738
  550THF     C810145   5.353   5.234   1.439  0.3307  0.3542  0.6472
  550THF     C910146   5.428   5.355   1.481 -0.3723  0.1818 -0.2550
  550THF    H1010147   5.381   5.219   1.331  0.1027  1.2737 -2.0218
  550THF    H1110148   5.366   5.152   1.507 -0.0714 -0.6826  5.4141
  550THF    H1210149   5.456   5.346   1.585 -1.7701 -1.5030 -1.5042
  550THF    H1310150   5.525   5.366   1.438  0.6525 -0.1945 -0.9397
  551THF     O110151   4.682   2.207   1.045 -0.2344  0.1586 -0.2568
  551THF     C210152   4.649   2.348   1.036 -0.3826  0.6016 -0.4889
  551THF     C310153   4.786   2.192   0.948 -0.1139 -0.8483 -0.3050
  551THF     H410154   4.580   2.371   1.125  0.3925  1.0834  2.1880
  551THF     H510155   4.588   2.373   0.943 -0.5838 -0.7598 -0.7242
  551THF     H610156   4.845   2.102   0.944  3.0546 -1.3496 -2.4724
  551THF     H710157   4.732   2.200   0.854 -2.0471 -0.2061  0.8615
  551THF     C810158   4.872   2.311   0.972  0.2270 -0.1883 -0.6506
  551THF     C910159   4.782   2.415   1.039  0.6083  0.2281 -0.0932
  551THF    H1010160   4.915   2.356   0.883  0.3661  0.4549 -0.0067
  551THF    H1110161   4.946   2.297   1.053 -0.3621 -0.7060  1.9480
  551THF    H1210162   4.804   2.427   1.146 -0.8595  1.1873  0.3863
  551THF    H1310163   4.788   2.509   1.002 -2.3326 -2.1313  5.8809
  552THF     O110164   4.586   3.453   0.325  0.3336  0.1712  0.6252
  552THF     C210165   4.721   3.493   0.345  0.2174  0.2941  0.6781
  552THF     C310166   4.513   3.564   0.264  0.1090 -0.6637  0.8192
  552THF     H410167   4.784   3.469   0.258 -1.7441 -0.2759 -0.2800
  552THF     H510168   4.754   3.427   0.433 -0.9398  0.6278  0.8218
  552THF     H610169   4.486   3.540   0.164 -2.1445 -2.1575 -3.2274
  552THF     H710170   4.423   3.584   0.322  1.0064  1.8466  2.6544
  552THF     C810171   4.602   3.692   0.275  0.3622 -0.4580  0.1255
  552THF     C910172   4.710   3.639   0.369  0.4939  0.2479  0.5885
  552THF    H1010173   4.558   3.769   0.336  1.6215 -1.0349  0.3438
  552THF    H1110174   4.644   3.727   0.176 -1.5006  0.9350 -1.3774
  552THF    H1210175   4.809   3.688   0.387  0.3051 -0.7178  0.4315
  552THF    H1310176   4.662   3.647   0.467 -0.9373  1.4334  0.2354
  553THF     O110177   2.270   0.105   3.338  0.3930 -0.2710  0.5025
  553THF     C210178   2.328   0.053   3.214  0.3109  0.5247  0.8141
  553THF     C310179   2.249  -0.005   3.440 -0.5324  0.0741 -0.0657
  553THF     H410180   2.434   0.074   3.213 -1.1216  0.0011  0.3928
  553THF     H510181   2.284   0.102   3.127  2.5627 -2.0732 -0.4589
  553THF     H610182   2.288   0.018   3.539 -3.6284 -1.6193  0.4021
  553THF     H710183   2.139  -0.015   3.455  1.7618 -3.3662 -2.4242
  553THF     C810184   2.313  -0.124   3.371 -0.2510  0.0236  0.4823
  553THF     C910185   2.302  -0.096   3.219 -0.4627  0.1854 -0.6733
  553THF    H1010186   2.270  -0.214   3.412 -0.2069  0.3370 -2.5708
  553THF    H1110187   2.422  -0.113   3.395  0.7016 -0.5228 -0.7591
  553THF    H1210188   2.380  -0.155   3.163 -0.0037 -0.6212 -0.4394
  553THF    H1310189   2.208  -0.118   3.168  1.5650  0.9752 -0.0398
  554THF     O110190   1.428   4.886   1.241 -0.3293 -0.4366  0.2429
  554THF     C210191   1.504   4.851   1.127 -0.5103  0.6180  0.1225
  554THF     C310192   1.490   4.838   1.362 -0.2888  0.3729  0.2221
  554THF     H410193   1.598   4.917   1.115 -0.1339  1.0070 -0.0856
  554THF     H510194   1.448   4.846   1.033 -1.6143 -0.3414  0.3787
  554THF     H610195   1.559   4.923   1.389 -2.3545 -3.0719 -0.5535
  554THF     H710196   1.419   4.815   1.441  1.0791  0.5378  0.3831
  554THF     C810197   1.565   4.707   1.310  0.6174 -0.3116 -1.2978
  554THF     C910198   1.553   4.708   1.159  0.5158 -0.0031  0.3486
  554THF    H1010199   1.519   4.612   1.355  1.5335  0.8593 -0.0962
  554THF    H1110200   1.666   4.693   1.344  1.5814  0.2561  0.7625
  554THF    H1210201   1.638   4.687   1.093 -1.4311 -0.2700 -1.3269
  554THF    H1310202   1.469   4.642   1.131 -1.2226  1.3764  0.5780
  555THF     O110203   5.157   2.684   0.986  0.4521 -0.6115 -0.1891
  555THF     C210204   5.051   2.754   1.051  0.1939  0.2385  0.1382
  555THF     C310205   5.271   2.699   1.065 -0.1346 -0.2689 -0.3460
  555THF     H410206   4.955   2.735   1.004  1.2783  3.3827  0.1327
  555THF     H510207   5.064   2.864   1.043 -2.1268 -0.1058 -1.5699
  555THF     H610208   5.344   2.616   1.049  0.6502  0.0413 -1.6511
  555THF     H710209   5.315   2.795   1.043  1.2663 -3.5501  2.7911
  555THF     C810210   5.225   2.701   1.208  0.0450  0.3886  1.1968
  555THF     C910211   5.073   2.695   1.188  0.3876 -0.2783  0.9845
  555THF    H1010212   5.254   2.788   1.267 -0.7487 -1.3544  0.0403
  555THF    H1110213   5.254   2.615   1.275  1.1731  1.1549  1.1071
  555THF    H1210214   5.052   2.592   1.193  0.3508  0.2985 -1.4918
  555THF    H1310215   5.013   2.742   1.269  0.6867 -1.0284 -1.4349
  556THF     O110216   0.535   0.521   0.472 -0.1246  0.5398 -0.0934
  556THF     C210217   0.550   0.449   0.594  0.7697  0.0796 -0.3443
  556THF     C310218   0.591   0.649   0.488  0.3732 -0.1265 -0.1234
  556THF     H410219   0.659   0.439   0.607  0.2454  0.4881 -1.8939
  556THF     H510220   0.501   0.348   0.591 -1.3744  1.3515  1.2285
  556THF     H610221   0.698   0.648   0.466 -1.5873 -0.3870  1.0401
  556THF     H710222   0.551   0.716   0.414  0.1909 -2.0507 -0.9147
  556THF     C810223   0.563   0.684   0.632  0.0388 -0.0657  0.5436
  556THF     C910224   0.488   0.555   0.681 -0.6857  0.3422 -0.1807
  556THF    H1010225   0.503   0.773   0.642  1.4418 -0.5935  1.4328
  556THF    H1110226   0.654   0.702   0.683 -0.8971  0.4002  0.7870
  556THF    H1210227   0.492   0.529   0.792 -1.0128 -1.6150  2.0123
  556THF    H1310228   0.393   0.582   0.646  0.8950  3.6447  2.4544
  557THF     O110229   1.281   4.679   4.430 -0.2445  0.1562 -0.8920
  557THF     C210230   1.172   4.749   4.367 -0.7807 -0.6983  0.3552
  557THF     C310231   1.229   4.599   4.531 -0.0477  0.5134 -0.4877
  557THF     H410232   1.185   4.743   4.262 -1.0504  1.3648  1.4341
  557THF     H510233   1.186   4.849   4.408 -1.5442 -0.1941  1.8555
  557THF     H610234   1.297   4.526   4.560  0.6718  0.5030 -0.7856
  557THF     H710235   1.216   4.651   4.626 -1.7943  0.0468  2.0845
  557THF     C810236   1.094   4.559   4.492 -0.3535 -0.2241 -0.0907
  557THF     C910237   1.048   4.687   4.417  0.4857 -0.2918 -1.3714
  557THF    H1010238   1.021   4.536   4.574 -0.8830 -0.2327 -2.3256
  557THF    H1110239   1.104   4.468   4.440  1.4295 -0.4738  0.0057
  557THF    H1210240   0.960   4.674   4.353  0.1621  0.3118  0.0160
  557THF    H1310241   1.013   4.753   4.493  2.6801 -1.8664 -0.3770
  558THF     O110242   4.592   2.231   4.994  0.6986  0.2915 -0.5278
  558THF     C210243   4.471   2.281   5.044 -0.3447 -0.3446  0.4186
  558THF     C310244   4.691   2.262   5.093  0.2983  0.7091 -0.0115
  558THF     H410245   4.412   2.221   5.122 -1.0394  0.8942 -0.0339
  558THF     H510246   4.397   2.285   4.964 -1.3889 -0.2860  0.7318
  558THF     H610247   4.701   2.180   5.158 -0.5117  0.8931  0.4951
  558THF     H710248   4.784   2.275   5.038 -1.7884 -0.1796 -0.6169
  558THF     C810249   4.646   2.401   5.139  0.1498  0.3374 -0.5638
  558THF     C910250   4.502   2.418   5.093  0.4040 -0.0090  0.5692
  558THF    H1010251   4.713   2.480   5.096  1.9890  0.3895  0.2450
  558THF    H1110252   4.659   2.402   5.244  3.4738 -1.9604  1.2928
  558THF    H1210253   4.428   2.445   5.170 -1.6080 -2.3157  0.7510
  558THF    H1310254   4.480   2.487   5.015  1.7746  0.7977  1.1550
  559THF     O110255   3.612   0.231   2.128 -0.1651 -0.1053  0.6274
  559THF     C210256   3.617   0.244   2.267 -0.0710 -0.5717 -0.0201
  559THF     C310257   3.568   0.362   2.078 -0.4536 -0.4313 -0.0246
  559THF     H410258   3.712   0.295   2.291 -3.0796  1.6471 -1.0907
  559THF     H510259   3.618   0.137   2.304 -0.9766  0.1328  0.0251
  559THF     H610260   3.650   0.436   2.066  1.8845 -0.2455 -1.8618
  559THF     H710261   3.515   0.345   1.978  4.1940 -2.4152  0.0244
  559THF     C810262   3.469   0.415   2.185 -0.0488 -0.9133  0.9745
  559THF     C910263   3.499   0.331   2.303  0.7328  0.4327  0.1359
  559THF    H1010264   3.371   0.412   2.142 -0.4271 -0.4942  1.9822
  559THF    H1110265   3.476   0.522   2.195 -2.6643 -0.0222 -0.2494
  559THF    H1210266   3.516   0.392   2.385 -1.4302 -0.8496 -0.8573
  559THF    H1310267   3.415   0.266   2.333 -0.8492 -0.4245  2.6107
  560THF     O110268   3.434   3.932   4.385  0.0665  0.0840  0.1869
  560THF     C210269   3.559   4.008   4.387  0.0687 -0.5361 -0.4479
  560THF     C310270   3.464   3.804   4.332  0.2889  0.3938 -0.6171
  560THF     H410271   3.603   4.001   4.486 -2.2445  3.7010 -0.1646
  560THF     H510272   3.538   4.117   4.372 -3.1654 -0.6151 -1.2960
  560THF     H610273   3.532   3.754   4.398  2.7087 -1.8516  0.2853
  560THF     H710274   3.383   3.735   4.301 -2.5384 -0.5138  1.7119
  560THF     C810275   3.542   3.853   4.212  0.1198  0.4624  0.1617
  560THF     C910276   3.636   3.955   4.275  0.0216 -0.5011  0.9081
  560THF    H1010277   3.463   3.900   4.151 -1.8941  0.7996  0.0637
  560THF    H1110278   3.592   3.776   4.160  2.7308  0.1784  1.9069
  560THF    H1210279   3.724   3.895   4.311  1.6433 -0.1176 -1.3629
  560THF    H1310280   3.657   4.032   4.200 -0.4855 -2.0727  1.2136
  561THF     O110281   1.444   2.904   0.299 -0.0448  0.5527  0.1987
  561THF     C210282   1.336   2.977   0.245  0.4810 -0.3258  0.6225
  561THF     C310283   1.481   2.977   0.415  0.1064  0.7774  0.1356
  561THF     H410284   1.246   2.935   0.284 -1.3224 -0.3600  0.3217
  561THF     H510285   1.333   2.983   0.138 -1.6426  1.2738  0.3344
  561THF     H610286   1.422   2.956   0.508  0.3440 -0.2656 -1.5131
  561THF     H710287   1.584   2.949   0.451 -0.9337  0.0191  1.1583
  561THF     C810288   1.462   3.132   0.379 -0.2405 -0.1164  0.3990
  561THF     C910289   1.341   3.129   0.277  0.1139 -0.4002  0.0198
  561THF    H1010290   1.559   3.151   0.331 -2.2330  2.4033 -1.8733
  561THF    H1110291   1.434   3.201   0.464  0.0397 -0.4865 -0.3313
  561THF    H1210292   1.249   3.169   0.316 -2.2507 -2.6152  3.1808
  561THF    H1310293   1.355   3.190   0.188 -0.6161  1.6692 -1.1095
  562THF     O110294   2.085   0.069   0.528  0.6437 -0.4887  0.1604
  562THF     C210295   1.969   0.044   0.603  0.3064 -0.4032  0.3105
  562THF     C310296   2.105   0.207   0.535 -0.0139 -0.2493 -0.1163
  562THF     H410297   1.966  -0.064   0.637  0.6179 -2.9029  0.4642
  562THF     H510298   1.882   0.050   0.542  2.2550 -1.8781 -0.8555
  562THF     H610299   2.194   0.251   0.512 -1.0047 -2.4758  0.6913
  562THF     H710300   2.026   0.251   0.478 -1.7806  1.4016 -2.0468
  562THF     C810301   2.059   0.250   0.677  0.4859  0.0822  0.4440
  562THF     C910302   1.957   0.144   0.712  0.0707 -0.2750 -0.6637
  562THF    H1010303   2.031   0.360   0.682  0.1524 -0.7567 -1.3904
  562THF    H1110304   2.150   0.239   0.736 -0.6583  0.1849  1.5508
  562THF    H1210305   1.979   0.102   0.816  0.0243 -0.5055  0.8489
  562THF    H1310306   1.862   0.189   0.717  2.7445 -2.3204  0.3084
  563THF     O110307   0.114   4.543   5.203 -0.1064 -0.2509 -0.4216
  563THF     C210308   0.049   4.655   5.150 -0.3828 -0.3597  0.0474
  563THF     C310309   0.086   4.530   5.342 -0.1645 -0.1121 -0.0467
  563THF     H410310  -0.053   4.630   5.112 -2.5070  1.1046  0.8480
  563THF     H510311   0.103   4.701   5.065 -0.6700  0.6613 -0.6095
  563THF     H610312   0.046   4.434   5.375  1.2796 -0.7357 -0.5076
  563THF     H710313   0.180   4.534   5.396  0.9939 -0.4283 -1.0642
  563THF     C810314   0.005   4.651   5.390 -0.9130  0.0560 -0.0190
  563THF     C910315   0.038   4.751   5.278  0.1396 -0.0434  0.2243
  563THF    H1010316   0.030   4.687   5.492 -1.0363 -1.3895 -0.1682
  563THF    H1110317  -0.101   4.633   5.394 -0.0787  0.3849 -1.2296
  563THF    H1210318  -0.042   4.825   5.260 -0.9262 -1.3611  2.4429
  563THF    H1310319   0.131   4.806   5.311 -0.3623 -0.0724  1.0649
  564THF     O110320   2.589   3.597   4.444  0.3684  0.0593 -0.1047
  564THF     C210321   2.705   3.658   4.388  0.2040 -0.4889  0.0494
  564THF     C310322   2.480   3.624   4.348  0.1986  0.2441  0.0489
  564THF     H410323   2.734   3.591   4.312 -1.2096  1.0832 -0.1992
  564THF     H510324   2.789   3.659   4.457  0.6340 -0.2583 -1.4705
  564THF     H610325   2.482   3.559   4.272 -0.1915  1.2737 -1.8429
  564THF     H710326   2.376   3.622   4.382 -2.0794  1.6014 -0.7413
  564THF     C810327   2.507   3.765   4.288 -0.5593  0.0799 -0.5255
  564THF     C910328   2.654   3.790   4.328 -0.5494 -0.0654  0.2720
  564THF    H1010329   2.433   3.836   4.336 -0.7286  0.9217  1.6542
  564THF    H1110330   2.495   3.763   4.180  2.7741  0.0154 -0.2874
  564THF    H1210331   2.711   3.841   4.244  0.5769  1.4663 -2.9217
  564THF    H1310332   2.660   3.871   4.404 -0.2134 -0.3144  3.8257
  565THF     O110333   2.985   0.238   3.351 -0.3685 -0.0413  0.0607
  565THF     C210334   3.019   0.282   3.478 -0.5870 -0.6716 -0.1631
  565THF     C310335   3.012   0.100   3.356 -0.1327  0.2840  0.2396
  565THF     H410336   2.942   0.251   3.546  2.2538 -0.2686  1.5869
  565THF     H510337   3.025   0.394   3.486 -0.7509  1.6588  0.1173
  565THF     H610338   2.943   0.055   3.427  0.2682 -2.7455  1.0029
  565THF     H710339   3.007   0.054   3.264 -0.1843 -3.3868  1.9006
  565THF     C810340   3.157   0.105   3.404  0.1926 -0.1896 -0.5350
  565THF     C910341   3.152   0.218   3.507  0.5932  0.4970 -0.2253
  565THF    H1010342   3.225   0.139   3.328 -2.2155 -1.2423  2.6358
  565THF    H1110343   3.186   0.016   3.459 -0.1770  2.6083 -0.5578
  565THF    H1210344   3.149   0.180   3.614  1.0280 -1.9977 -1.6714
  565THF    H1310345   3.237   0.291   3.504  0.0593 -1.5242  1.6516
  566THF     O110346   1.166   5.103   3.632 -0.6711  0.3698 -0.0214
  566THF     C210347   1.206   4.972   3.641  0.2711  0.3999 -0.2536
  566THF     C310348   1.022   5.102   3.649 -0.1535  0.0556  0.8348
  566THF     H410349   1.314   4.956   3.621  2.5490 -1.5943  2.0061
  566THF     H510350   1.160   4.919   3.557  0.1616  2.5255 -1.5731
  566THF     H610351   1.001   5.205   3.668  0.2465  1.7847  0.8886
  566THF     H710352   0.968   5.070   3.558  0.0893  3.0456  0.0578
  566THF     C810353   1.003   5.017   3.770 -0.1243 -0.7527  0.3956
  566THF     C910354   1.136   4.935   3.772  0.3649 -0.8082 -0.7306
  566THF    H1010355   0.908   4.962   3.769  1.1362  1.8825 -1.8715
  566THF    H1110356   1.006   5.094   3.856  0.0420  0.0731  3.0810
  566THF    H1210357   1.202   4.976   3.849 -2.2590 -0.7721 -1.2616
  566THF    H1310358   1.123   4.826   3.786  0.5987  1.2502 -1.2362
  567THF     O110359   4.548   1.274   4.620  0.0708 -0.0150  0.1183
  567THF     C210360   4.550   1.408   4.637 -0.2552 -0.5113 -0.1356
  567THF     C310361   4.418   1.231   4.636  0.3048 -0.9105 -0.0295
  567THF     H410362   4.501   1.461   4.556  1.1270  2.7146 -1.2736
  567THF     H510363   4.647   1.450   4.630  0.4574  2.1137 -0.8219
  567THF     H610364   4.357   1.261   4.545 -1.7578  0.2162  3.6914
  567THF     H710365   4.398   1.126   4.646 -0.4703  1.0364  2.7458
  567THF     C810366   4.387   1.312   4.759 -0.1604 -0.2063  0.5620
  567THF     C910367   4.474   1.438   4.762  0.8261  0.7945 -0.6148
  567THF    H1010368   4.419   1.247   4.841  0.5421 -0.9180  1.6303
  567THF    H1110369   4.286   1.342   4.772  0.6863  0.9854  1.8857
  567THF    H1210370   4.419   1.531   4.752  2.0623  0.8432 -0.2630
  567THF    H1310371   4.534   1.443   4.850  0.2787 -0.3180 -1.1397
  568THF     O110372   5.455   3.844   4.007  0.1161 -0.1695  0.5904
  568THF     C210373   5.377   3.922   4.095 -0.0542 -0.0533  0.4109
  568THF     C310374   5.561   3.791   4.084  0.5022 -0.2698  0.2232
  568THF     H410375   5.307   3.868   4.150  0.6665 -2.0728  2.2109
  568THF     H510376   5.310   3.978   4.033  1.5986 -3.1962 -2.6222
  568THF     H610377   5.533   3.694   4.124  0.0149 -1.2027  0.9108
  568THF     H710378   5.658   3.773   4.037 -0.1854 -1.1511  0.5761
  568THF     C810379   5.584   3.887   4.200  0.3810  0.8164  0.3514
  568THF     C910380   5.481   3.995   4.178 -0.2175 -0.3057  0.0051
  568THF    H1010381   5.687   3.923   4.199 -0.1006  0.1112 -1.5389
  568THF    H1110382   5.569   3.835   4.293  0.6247  0.2371 -0.7895
  568THF    H1210383   5.432   4.030   4.273  0.0722  0.8262  0.7282
  568THF    H1310384   5.518   4.081   4.124 -0.0114  0.8069  1.8318
  569THF     O110385   4.523   0.875   2.499 -0.2139 -0.7543  0.6198
  569THF     C210386   4.559   0.967   2.393 -0.0263 -0.5106  0.4993
  569THF     C310387   4.480   0.752   2.451  0.1322 -0.0871  0.4650
  569THF     H410388   4.665   0.999   2.404 -0.8038  0.4383  1.3261
  569THF     H510389   4.494   1.051   2.398 -1.5962 -0.5999 -0.5647
  569THF     H610390   4.561   0.675   2.441  0.9010  2.1766  1.1524
  569THF     H710391   4.391   0.714   2.501  1.0484 -1.9527 -0.8892
  569THF     C810392   4.431   0.799   2.313 -0.5558 -0.1895  0.0473
  569THF     C910393   4.530   0.895   2.266  0.1442 -0.2510  0.3545
  569THF    H1010394   4.334   0.846   2.312  1.1861 -0.4614 -1.7470
  569THF    H1110395   4.418   0.713   2.242  3.5517 -0.0173  0.5049
  569THF    H1210396   4.620   0.848   2.236 -0.0971  0.7415  1.3027
  569THF    H1310397   4.499   0.957   2.182  0.0631  1.7513  0.6234
  570THF     O110398   1.057   5.064   5.387  0.1320  0.3054 -0.3707
  570THF     C210399   1.095   5.036   5.253 -0.0767  0.3855 -0.1760
  570THF     C310400   1.061   4.948   5.472  0.0944  0.2840  0.2074
  570THF     H410401   1.133   5.123   5.208  0.1011 -2.0337 -0.3915
  570THF     H510402   1.019   4.987   5.191  0.5886  2.1391 -0.5270
  570THF     H610403   1.086   4.977   5.571  1.2311 -0.5074  0.2253
  570THF     H710404   0.966   4.892   5.471  0.9286  1.3747 -2.3398
  570THF     C810405   1.174   4.868   5.405  0.4059 -0.7859  0.3368
  570THF     C910406   1.206   4.939   5.276 -0.1488  0.2228  0.3645
  570THF    H1010407   1.138   4.770   5.377  0.7904 -0.2377  0.9904
  570THF    H1110408   1.260   4.849   5.471  1.8618 -1.8247 -1.3367
  570THF    H1210409   1.306   4.989   5.296  2.8984  3.8366 -0.3586
  570THF    H1310410   1.223   4.877   5.190 -0.1605  1.4980  3.7437
  571THF     O110411   5.108   0.236   3.363  0.1648 -0.1949  0.5711
  571THF     C210412   5.098   0.187   3.228 -0.6092 -0.1580  0.1208
  571THF     C310413   4.997   0.184   3.430 -0.3863 -0.3147  0.0077
  571THF     H410414   5.160   0.100   3.221  1.5605  2.3404  2.3778
  571THF     H510415   5.127   0.265   3.159  1.6199  0.7427 -0.8855
  571THF     H610416   5.026   0.081   3.456  1.7186  0.5938 -1.4950
  571THF     H710417   4.959   0.238   3.518 -0.7608 -0.1053 -2.2458
  571THF     C810418   4.874   0.189   3.338 -0.2548 -0.4025  0.4225
  571THF     C910419   4.946   0.165   3.211 -0.3309  0.5704  0.1709
  571THF    H1010420   4.829   0.291   3.336 -0.0228 -1.7156 -0.2550
  571THF    H1110421   4.807   0.105   3.341  1.8671  0.1166 -1.0030
  571THF    H1210422   4.936   0.060   3.183 -2.0354  0.7464 -0.5703
  571THF    H1310423   4.903   0.215   3.122 -1.6334 -2.2364  1.5421
  572THF     O110424   4.221   4.751   0.508 -0.0880  0.0108 -0.5877
  572THF     C210425   4.088   4.784   0.557  0.2622  1.1764  0.1320
  572THF     C310426   4.266   4.853   0.420 -0.1946 -0.4257  0.0156
  572THF     H410427   4.077   4.781   0.664 -0.6796 -0.8457  0.1983
  572THF     H510428   4.015   4.717   0.517 -2.7076  1.3102  1.0775
  572THF     H610429   4.325   4.917   0.475  1.6181 -2.7324 -2.2680
  572THF     H710430   4.312   4.826   0.323 -2.1943 -2.3649 -0.9287
  572THF     C810431   4.138   4.931   0.385  0.7428  0.2044  0.4316
  572THF     C910432   4.055   4.920   0.513  0.0732  0.0093  0.4923
  572THF    H1010433   4.076   4.887   0.305  0.2871  0.6120 -1.8268
  572THF    H1110434   4.149   5.029   0.351 -3.0417 -2.3666 -1.3338
  572THF    H1210435   4.080   4.992   0.582 -1.9480 -1.5243 -2.4847
  572THF    H1310436   3.947   4.935   0.492  2.3069  2.0612  0.0788
  573THF     O110437   5.012   4.589   4.621  0.2166 -0.4842  0.7117
  573THF     C210438   4.992   4.455   4.573 -0.3535  0.8797 -0.3756
  573THF     C310439   4.934   4.599   4.750 -0.5490 -0.5310  0.6977
  573THF     H410440   5.070   4.388   4.623 -0.5638 -2.1498  0.5715
  573THF     H510441   5.012   4.458   4.463  0.5806 -1.0257 -0.5663
  573THF     H610442   4.994   4.538   4.828  1.6673 -0.9660 -0.5514
  573THF     H710443   4.926   4.700   4.786  2.5808 -1.8689 -1.2071
  573THF     C810444   4.807   4.548   4.701  0.0599 -0.6571  0.0166
  573THF     C910445   4.848   4.427   4.618 -0.1393 -0.1237 -0.3862
  573THF    H1010446   4.754   4.618   4.632  2.4896  1.6463 -0.5108
  573THF    H1110447   4.740   4.531   4.783 -0.8252 -2.9099 -0.9172
  573THF    H1210448   4.832   4.330   4.670  1.8362  0.7516  3.9153
  573THF    H1310449   4.790   4.435   4.534  2.4813  2.4198  2.1070
  574THF     O110450   0.915   5.178   4.589 -0.2355 -0.5468  0.1179
  574THF     C210451   0.860   5.071   4.512 -0.3169 -0.4156  0.2874
  574THF     C310452   0.836   5.194   4.702  0.7330 -0.4331  0.1010
  574THF     H410453   0.934   5.022   4.444 -1.3916  1.2349  1.4043
  574THF     H510454   0.784   5.113   4.442 -1.6361 -1.1112 -0.6004
  574THF     H610455   0.881   5.262   4.781 -0.5766  1.2745  1.2199
  574THF     H710456   0.736   5.243   4.672 -0.4018  0.7069 -0.7802
  574THF     C810457   0.809   5.049   4.748  0.3058 -0.1210  0.4249
  574THF     C910458   0.811   4.969   4.618  0.1795  0.6466 -0.1984
  574THF    H1010459   0.714   5.036   4.796 -0.9458 -5.2488 -1.6891
  574THF    H1110460   0.888   5.025   4.825  0.0141 -0.5534  0.5520
  574THF    H1210461   0.877   4.886   4.623 -0.8826  0.5603 -1.9860
  574THF    H1310462   0.702   4.942   4.596 -1.8655  2.8253 -1.0616
  575THF     O110463   3.041   3.464   3.517  0.4294  0.0577 -0.1778
  575THF     C210464   2.982   3.591   3.547  0.0780 -0.3336 -0.0028
  575THF     C310465   3.185   3.485   3.531 -0.5677 -0.5653 -0.1445
  575THF     H410466   2.978   3.602   3.655 -0.5773 -2.0106 -2.5308
  575THF     H510467   2.881   3.598   3.513  2.6367  0.7542 -0.5557
  575THF     H610468   3.226   3.514   3.627 -0.7166  0.4412  0.4585
  575THF     H710469   3.238   3.399   3.492 -0.5002 -1.1319  2.4772
  575THF     C810470   3.193   3.604   3.435  0.8914 -0.2652  0.2676
  575THF     C910471   3.074   3.688   3.479  0.3056  0.1856 -0.0776
  575THF    H1010472   3.190   3.565   3.332 -1.4103  0.8058  0.2918
  575THF    H1110473   3.287   3.656   3.449  0.7059 -1.5532  0.2238
  575THF    H1210474   3.102   3.775   3.539  2.4773 -2.2152 -2.1202
  575THF    H1310475   3.017   3.729   3.395  3.5703  1.7390 -1.2598
  576THF     O110476   4.840   4.475   3.316  0.2817 -0.0850  0.0191
  576THF     C210477   4.893   4.373   3.242 -0.1396 -0.2546 -0.1947
  576THF     C310478   4.742   4.425   3.402  0.0581  1.2972  0.0932
  576THF     H410479   4.967   4.325   3.299 -5.2858  1.9112  0.5055
  576THF     H510480   4.944   4.411   3.156 -0.8830  0.8722 -0.5867
  576THF     H610481   4.801   4.389   3.483  2.0873 -0.2617 -1.1285
  576THF     H710482   4.689   4.508   3.449 -0.0239 -1.3827  1.5823
  576THF     C810483   4.671   4.312   3.309  0.0950  0.5937 -0.9593
  576THF     C910484   4.790   4.266   3.227 -0.7040  0.6753 -0.4378
  576THF    H1010485   4.601   4.361   3.247 -0.8993 -1.3124  4.4685
  576THF    H1110486   4.628   4.232   3.370 -0.3856 -0.3453 -0.2111
  576THF    H1210487   4.818   4.164   3.257  1.2429 -0.0871  0.4336
  576THF    H1310488   4.760   4.264   3.122  0.2614 -0.2775  1.0072
  577THF     O110489   3.010   1.392   5.310  0.8189 -0.0329  0.1495
  577THF     C210490   3.085   1.510   5.281  0.3719  0.1872 -0.2245
  577THF     C310491   2.891   1.436   5.376 -0.2965 -0.6149  0.2383
  577THF     H410492   3.042   1.575   5.200  0.2594 -1.5515 -0.1791
  577THF     H510493   3.191   1.487   5.258  1.3517  0.2027 -1.8164
  577THF     H610494   2.836   1.468   5.286  0.7009 -0.2909  0.6346
  577THF     H710495   2.834   1.351   5.425 -1.5261  0.9060  0.3528
  577THF     C810496   2.940   1.551   5.469  0.3025 -0.0071  0.0896
  577THF     C910497   3.075   1.591   5.405  1.1302 -0.0391 -0.6524
  577THF    H1010498   2.945   1.511   5.573  1.4403 -2.1561 -0.9947
  577THF    H1110499   2.864   1.637   5.468 -0.0983  0.3772 -0.8604
  577THF    H1210500   3.089   1.694   5.396 -0.6980 -1.3236 -2.4230
  577THF    H1310501   3.152   1.543   5.460  0.4685  1.0124  0.2430
  578THF     O110502   0.897   1.257   1.923  0.2818  0.0517 -0.1041
  578THF     C210503   0.842   1.313   1.809  0.2739  0.3650  0.4905
  578THF     C310504   1.035   1.293   1.917 -0.4172 -0.0508 -0.1268
  578THF     H410505   0.841   1.422   1.802  3.4287 -2.6410 -1.2902
  578THF     H510506   0.734   1.284   1.805  0.5997 -0.7066  1.7942
  578THF     H610507   1.035   1.401   1.921 -0.4585 -2.1132  1.6320
  578THF     H710508   1.092   1.255   2.005  0.8466 -0.0997  0.5981
  578THF     C810509   1.071   1.253   1.768 -0.3181 -0.2990  1.0104
  578THF     C910510   0.932   1.263   1.701  0.1612  0.5799 -0.0694
  578THF    H1010511   1.111   1.153   1.768 -2.7828 -0.1943 -1.6636
  578THF    H1110512   1.148   1.321   1.734  0.2248  1.1089  0.3416
  578THF    H1210513   0.945   1.330   1.605 -0.3192  1.2738 -2.1293
  578THF    H1310514   0.891   1.163   1.675 -2.8946  0.2627 -2.1600
  579THF     O110515   0.919   1.419   2.385 -0.3610  0.1334  0.4947
  579THF     C210516   0.952   1.340   2.503  0.8871 -0.9050  0.2057
  579THF     C310517   0.896   1.327   2.276  0.8719 -0.3322 -0.5106
  579THF     H410518   0.876   1.269   2.541  0.6591 -0.6159  2.8411
  579THF     H510519   0.988   1.401   2.588 -1.0464 -0.6318  0.3853
  579THF     H610520   0.789   1.295   2.273 -1.8126  0.8420  2.2523
  579THF     H710521   0.924   1.375   2.174 -0.0218  1.4004  0.3289
  579THF     C810522   0.986   1.207   2.314  0.5691  0.0137 -0.2944
  579THF     C910523   1.062   1.256   2.441 -0.4680 -0.0895 -0.2442
  579THF    H1010524   1.062   1.176   2.246  2.2189  2.1034 -3.3060
  579THF    H1110525   0.914   1.126   2.341  1.0525  2.3619 -0.4844
  579THF    H1210526   1.095   1.165   2.494  0.9857  0.7936 -0.0231
  579THF    H1310527   1.148   1.313   2.413  3.6776  0.2967  3.2595
  580THF     O110528   2.280   2.960   1.983 -0.8155  0.0374  0.0778
  580THF     C210529   2.263   3.066   2.069 -0.1034 -0.6310  0.4388
  580THF     C310530   2.417   2.947   1.944  0.1980  0.7603 -0.0336
  580THF     H410531   2.266   3.037   2.175  2.9620  0.5178 -0.8659
  580THF     H510532   2.165   3.110   2.054 -0.6278 -2.0810 -0.1853
  580THF     H610533   2.452   2.852   1.978 -2.3558 -1.2701  0.7105
  580THF     H710534   2.425   2.956   1.833 -1.3803 -1.7640  1.1404
  580THF     C810535   2.486   3.059   2.009  0.2613  0.3914  0.0702
  580THF     C910536   2.376   3.162   2.041  0.5072  0.0596  0.8245
  580THF    H1010537   2.563   3.111   1.952 -0.8642 -0.9018 -1.6445
  580THF    H1110538   2.535   3.028   2.103  0.8404  1.5078  0.7182
  580THF    H1210539   2.389   3.224   2.123  1.6526  0.6306 -2.0198
  580THF    H1310540   2.361   3.231   1.950 -0.8050  2.4948 -1.3603
  581THF     O110541   1.852   3.680   2.461  0.0629 -0.1974 -0.5268
  581THF     C210542   1.738   3.727   2.393  0.5458  0.4960  0.3794
  581THF     C310543   1.924   3.794   2.519  0.3140  0.1887  0.6652
  581THF     H410544   1.658   3.653   2.398 -0.9406 -0.2055  0.2938
  581THF     H510545   1.781   3.753   2.296  1.0220 -1.9694  0.4424
  581THF     H610546   1.959   3.785   2.613 -1.0330  0.0561 -0.7260
  581THF     H710547   2.011   3.811   2.452  0.3353 -1.0281  0.4168
  581THF     C810548   1.833   3.915   2.519  0.2557  0.0233 -0.2074
  581THF     C910549   1.702   3.858   2.473  0.7180 -0.3539 -0.6195
  581THF    H1010550   1.868   3.971   2.428  1.8921  0.1149  0.8868
  581THF    H1110551   1.837   3.977   2.607  0.8356 -0.7439  2.9183
  581THF    H1210552   1.654   3.822   2.556  0.8631  2.2149  0.4733
  581THF    H1310553   1.637   3.929   2.425 -1.9739 -1.7195 -1.1258
  582THF     O110554   3.693   3.018   4.088  0.3316  0.1821  0.0510
  582THF     C210555   3.720   3.000   3.947  0.5504  0.0715 -0.3676
  582THF     C310556   3.793   2.934   4.160 -0.0107 -0.0647 -0.1154
  582THF     H410557   3.800   3.072   3.939 -0.5220  0.4886 -1.4583
  582THF     H510558   3.636   3.037   3.891  0.1337 -1.8260  1.8452
  582THF     H610559   3.876   3.003   4.183 -0.0748 -2.2903 -2.3281
  582THF     H710560   3.757   2.908   4.255 -2.0201 -0.2322  2.1377
  582THF     C810561   3.839   2.823   4.071  0.0320  0.1188  0.3950
  582THF     C910562   3.764   2.855   3.944 -0.9790 -0.2959 -0.6436
  582THF    H1010563   3.802   2.730   4.121  1.3034 -1.9659 -0.0219
  582THF    H1110564   3.948   2.835   4.058  1.5682  1.0429  0.3382
  582THF    H1210565   3.833   2.825   3.857 -0.6159 -0.6156 -0.4957
  582THF    H1310566   3.669   2.791   3.935 -2.1420  2.4663  0.4737
  583THF     O110567   2.845   1.348   0.297  0.1199 -0.0761 -0.6918
  583THF     C210568   2.899   1.313   0.425 -0.2517  0.5407 -0.3522
  583THF     C310569   2.864   1.240   0.200  0.4567 -0.2755  0.5818
  583THF     H410570   2.817   1.303   0.500 -0.8437 -2.9147  2.7913
  583THF     H510571   2.964   1.387   0.463 -0.0025 -0.5047  1.5030
  583THF     H610572   2.783   1.241   0.127 -1.2008  2.8034 -1.9352
  583THF     H710573   2.954   1.257   0.139 -0.4628 -3.1329  0.7646
  583THF     C810574   2.878   1.117   0.292 -0.0572 -1.1835 -0.1708
  583THF     C910575   2.966   1.177   0.410  0.1097 -0.5100  0.0859
  583THF    H1010576   2.924   1.031   0.238  0.5865  1.9902  2.1665
  583THF    H1110577   2.785   1.079   0.336 -0.4210 -0.3838 -2.0798
  583THF    H1210578   2.961   1.111   0.495  0.9810  1.2938  0.5253
  583THF    H1310579   3.060   1.177   0.365 -0.8149 -2.2740 -0.6773
  584THF     O110580   1.231   2.231   0.986 -0.2078  0.2801  0.7541
  584THF     C210581   1.091   2.256   1.016  0.0162 -0.3167 -0.1535
  584THF     C310582   1.297   2.358   0.987  0.3158 -0.5861 -0.8410
  584THF     H410583   1.040   2.162   1.055  0.1905  2.9097  1.5643
  584THF     H510584   1.034   2.293   0.933  0.9375 -0.4007 -0.9254
  584THF     H610585   1.401   2.349   1.029  3.4779 -0.0075  0.8187
  584THF     H710586   1.310   2.399   0.885  0.4602  1.0008  2.5232
  584THF     C810587   1.212   2.439   1.083  0.2006 -0.0202 -0.5707
  584THF     C910588   1.092   2.359   1.120 -0.2876  0.1267 -0.3211
  584THF    H1010589   1.182   2.527   1.028 -1.0137 -1.3600 -0.7394
  584THF    H1110590   1.266   2.471   1.170 -2.5849  2.1454 -2.1436
  584THF    H1210591   1.108   2.303   1.211 -1.7354 -2.6696 -1.0155
  584THF    H1310592   0.999   2.409   1.126 -0.0129 -1.7456  0.0517
  585THF     O110593   1.488   2.019   4.143 -0.0120 -0.6421  0.1975
  585THF     C210594   1.449   2.152   4.123  0.0074  0.2735 -0.7353
  585THF     C310595   1.505   1.995   4.283 -0.1154 -0.0553 -0.5466
  585THF     H410596   1.409   2.172   4.024 -0.6119 -1.0261  2.3999
  585THF     H510597   1.544   2.212   4.130  3.8953 -0.8456 -1.4611
  585THF     H610598   1.487   1.890   4.312  0.3416  0.1107  1.3359
  585THF     H710599   1.608   2.022   4.312 -1.3394 -1.2342  0.1449
  585THF     C810600   1.402   2.085   4.346 -0.0161 -0.0851  0.3742
  585THF     C910601   1.351   2.177   4.231 -0.5701  0.6682  0.2216
  585THF    H1010602   1.453   2.142   4.420  0.6950  0.6653  0.2480
  585THF    H1110603   1.316   2.029   4.381  1.4338 -0.6884  0.4115
  585THF    H1210604   1.249   2.138   4.207  1.5787 -0.8767 -0.3598
  585THF    H1310605   1.342   2.282   4.246  1.0345 -0.1233 -0.8912
  586THF     O110606   2.088   0.544   0.449  0.4891  0.6827 -0.1920
  586THF     C210607   2.002   0.609   0.356 -0.2552  0.1565  0.3856
  586THF     C310608   2.225   0.563   0.408  0.2388  0.5296  0.4592
  586THF     H410609   1.913   0.642   0.409 -2.3449 -0.7560 -0.3500
  586THF     H510610   1.956   0.549   0.279 -1.9984 -0.1635 -0.1423
  586THF     H610611   2.296   0.547   0.484  0.1731  0.4379  1.2906
  586THF     H710612   2.258   0.490   0.331  1.6462 -0.1998  0.8713
  586THF     C810613   2.224   0.704   0.347 -0.0112  0.0813 -0.2525
  586THF     C910614   2.078   0.735   0.307  0.3318  0.8891 -0.1153
  586THF    H1010615   2.293   0.717   0.263  0.1833 -0.6130 -0.3133
  586THF    H1110616   2.257   0.769   0.430 -0.7750  0.1575 -0.1213
  586THF    H1210617   2.048   0.830   0.355 -3.2123 -2.1708  3.5152
  586THF    H1310618   2.061   0.748   0.197  0.3072  0.1918 -0.3581
  587THF     O110619   0.359   3.003   4.541 -0.0355 -0.1167 -0.2112
  587THF     C210620   0.403   3.069   4.663  0.3134  0.0557 -0.1579
  587THF     C310621   0.434   3.055   4.435  0.0471  0.3216  0.2497
  587THF     H410622   0.386   3.006   4.755  0.1015 -2.2777 -3.0290
  587THF     H510623   0.360   3.169   4.679  0.9238  0.1352 -2.6244
  587THF     H610624   0.455   2.974   4.358 -4.1124 -1.3321  1.3962
  587THF     H710625   0.373   3.134   4.398  1.0596 -1.2221 -1.4039
  587THF     C810626   0.565   3.115   4.494  0.6216 -0.3964  0.0776
  587THF     C910627   0.558   3.092   4.646 -0.3121  0.5086  0.2429
  587THF    H1010628   0.590   3.212   4.462 -0.2293  2.4142  0.0307
  587THF    H1110629   0.656   3.045   4.476  1.5006 -1.7897 -1.7700
  587THF    H1210630   0.602   2.995   4.672 -2.6374  1.2422 -1.1197
  587THF    H1310631   0.597   3.176   4.708 -1.3889 -1.0884 -0.2815
  588THF     O110632   1.337   4.931   4.719 -0.2486  0.4050 -0.2779
  588THF     C210633   1.411   4.986   4.821  0.3905 -0.3199 -0.3431
  588THF     C310634   1.194   4.935   4.745 -0.6060 -0.2287  0.6168
  588THF     H410635   1.509   5.018   4.775 -1.6358  1.3236 -0.1383
  588THF     H510636   1.420   4.917   4.908  1.2006 -0.5366 -1.9739
  588THF     H610637   1.140   4.937   4.651  3.0272 -0.5026 -0.0323
  588THF     H710638   1.159   4.846   4.792 -1.0681  1.0129 -2.8656
  588THF     C810639   1.180   5.050   4.847 -0.3950  0.1547  0.0026
  588THF     C910640   1.325   5.109   4.848 -0.4282 -0.1220  0.5567
  588THF    H1010641   1.168   5.018   4.950 -1.5605  0.0556 -0.4505
  588THF    H1110642   1.101   5.125   4.824  2.5913  0.6433 -1.1189
  588THF    H1210643   1.341   5.196   4.777 -0.1931  1.3867 -0.9897
  588THF    H1310644   1.344   5.151   4.949  0.3056 -1.4922 -0.5817
  589THF     O110645   3.515   0.675   1.936 -0.1197  0.0535  0.2270
  589THF     C210646   3.448   0.606   1.822 -0.1903  0.6686 -0.4504
  589THF     C310647   3.441   0.780   1.982  0.3086 -0.7350  0.1941
  589THF     H410648   3.436   0.502   1.827  1.5047 -1.2995  1.1947
  589THF     H510649   3.523   0.609   1.749 -0.3081  1.4363 -0.9923
  589THF     H610650   3.445   0.775   2.091 -1.3883 -0.3507  1.0450
  589THF     H710651   3.466   0.886   1.948 -0.6798 -0.3669 -1.0287
  589THF     C810652   3.301   0.738   1.937  0.3391 -0.3316  0.0218
  589THF     C910653   3.326   0.688   1.794 -0.5443  0.1148 -0.0469
  589THF    H1010654   3.227   0.812   1.936  0.8969 -2.1185 -1.8636
  589THF    H1110655   3.255   0.650   1.997  0.0199 -1.7547  0.6509
  589THF    H1210656   3.251   0.629   1.751  3.4971  1.1056 -0.5277
  589THF    H1310657   3.351   0.777   1.732  1.6649 -1.4416 -3.0322
  590THF     O110658   4.699   0.463   4.501  0.4660  0.3436  0.0095
  590THF     C210659   4.693   0.536   4.373 -0.5912  1.0161  0.6156
  590THF     C310660   4.827   0.396   4.512 -0.4660  0.6294 -0.3995
  590THF     H410661   4.619   0.615   4.368 -2.9890 -0.1454 -1.4646
  590THF     H510662   4.669   0.454   4.294  1.6485 -1.3975 -1.3556
  590THF     H610663   4.843   0.365   4.617  2.7855  1.1965  1.4361
  590THF     H710664   4.834   0.307   4.453  1.1155  2.2991  0.9689
  590THF     C810665   4.923   0.502   4.455  0.1245 -0.0950 -0.0064
  590THF     C910666   4.835   0.585   4.360 -0.0482  0.5032 -0.8521
  590THF    H1010667   5.007   0.457   4.408  0.1839 -0.2342 -0.4139
  590THF    H1110668   4.960   0.562   4.535 -1.1086 -0.3914  0.9247
  590THF    H1210669   4.838   0.688   4.396 -0.2000 -0.5425  0.7316
  590THF    H1310670   4.863   0.590   4.255 -1.5292  0.3090 -0.1611
  591THF     O110671   3.167   4.236   0.977 -0.1283 -0.3415 -0.0825
  591THF     C210672   3.024   4.234   0.979 -0.2550  0.1872 -0.7212
  591THF     C310673   3.207   4.311   0.864  0.3064  0.3508  0.0862
  591THF     H410674   2.985   4.217   1.079 -0.0193  2.5436  1.6932
  591THF     H510675   2.975   4.165   0.904 -0.7470  0.4177  1.3811
  591THF     H610676   3.314   4.328   0.851  1.4458 -2.0668 -1.0109
  591THF     H710677   3.179   4.249   0.783 -1.1267  0.0082  0.0786
  591THF     C810678   3.122   4.427   0.877 -0.1661 -0.2228  0.1258
  591THF     C910679   2.994   4.385   0.946 -0.5118 -0.1036  0.3960
  591THF    H1010680   3.100   4.474   0.787  2.9800 -0.5611  1.2983
  591THF    H1110681   3.178   4.495   0.951 -3.3942  1.4790  2.3032
  591THF    H1210682   2.970   4.450   1.032 -2.1945 -0.3848  0.7194
  591THF    H1310683   2.912   4.376   0.875 -2.2907  1.4687 -0.5581
  592THF     O110684   1.557   4.443   2.482  0.9388 -0.4421 -0.5004
  592THF     C210685   1.619   4.418   2.606 -0.4759 -0.0332  0.7625
  592THF     C310686   1.468   4.554   2.492  0.3298  0.0667 -0.1818
  592THF     H410687   1.721   4.454   2.607 -0.5165  1.1910  1.1021
  592THF     H510688   1.626   4.311   2.616 -1.0016  0.9790  0.3106
  592THF     H610689   1.539   4.630   2.481  2.4586  0.7686  2.1617
  592THF     H710690   1.385   4.572   2.424  3.7265 -0.9623 -1.0070
  592THF     C810691   1.419   4.548   2.639 -0.0960 -0.5113  0.4323
  592THF     C910692   1.531   4.477   2.715  0.8543 -0.3435  0.0614
  592THF    H1010693   1.334   4.484   2.662  1.1363  0.3369  1.7329
  592THF    H1110694   1.398   4.649   2.675 -0.1340  1.8502 -0.6104
  592THF    H1210695   1.594   4.546   2.775  0.1806  1.3499 -1.8327
  592THF    H1310696   1.497   4.402   2.774  1.4998  1.6295 -0.8575
  593THF     O110697   4.610   0.136   0.324  0.3673  0.1552  0.0435
  593THF     C210698   4.684   0.061   0.423  0.4794  0.4554  0.4108
  593THF     C310699   4.535   0.045   0.241  0.4519  0.5139  0.1072
  593THF     H410700   4.605   0.041   0.501  2.4334  0.8261  1.2386
  593THF     H510701   4.770   0.116   0.473 -2.0732  0.4392  0.7875
  593THF     H610702   4.445   0.021   0.305 -2.0608  2.1246 -1.0158
  593THF     H710703   4.507   0.080   0.143  2.4975 -2.6893 -0.5769
  593THF     C810704   4.630  -0.077   0.230 -0.8685  1.3150 -0.2006
  593THF     C910705   4.737  -0.054   0.341  0.4850  0.3689  0.0415
  593THF    H1010706   4.690  -0.093   0.138 -0.6825 -1.5791  1.5617
  593THF    H1110707   4.572  -0.167   0.244  0.4263  1.6151  0.2698
  593THF    H1210708   4.759  -0.139   0.401 -0.4791  0.3592 -2.8550
  593THF    H1310709   4.835  -0.027   0.298 -0.3336  1.3065  0.4855
  594THF     O110710   1.633   2.556   3.133 -0.1976 -0.0005 -0.0223
  594THF     C210711   1.773   2.572   3.132  0.0795  0.3459  0.0348
  594THF     C310712   1.575   2.631   3.024 -0.0720  0.1954  0.6702
  594THF     H410713   1.836   2.503   3.182  0.1464 -1.0673 -1.3799
  594THF     H510714   1.793   2.669   3.171  0.6881  2.5431  0.7445
  594THF     H610715   1.499   2.566   2.989  0.7161  2.0759  2.6970
  594THF     H710716   1.547   2.726   3.062 -0.2492 -1.2739  1.5798
  594THF     C810717   1.690   2.642   2.923 -0.4863 -0.5153 -0.4395
  594THF     C910718   1.807   2.574   2.984  0.0435  0.4134 -0.2117
  594THF    H1010719   1.713   2.744   2.905  5.9463 -0.4367 -2.8784
  594THF    H1110720   1.669   2.608   2.823 -0.4933  1.3681 -0.3359
  594THF    H1210721   1.823   2.472   2.958 -0.9306 -1.4678  1.2454
  594THF    H1310722   1.898   2.621   2.960  2.0268 -0.4363  2.5045
  595THF     O110723   4.915   0.578   5.409 -0.0947  1.0238 -0.1101
  595THF     C210724   4.994   0.569   5.524  0.2458  0.3339  0.4466
  595THF     C310725   5.004   0.558   5.298  0.4523 -0.1397  0.2811
  595THF     H410726   5.010   0.467   5.550 -1.1819 -1.6498 -0.5086
  595THF     H510727   4.940   0.614   5.607 -0.4129  1.1834 -3.8471
  595THF     H610728   5.039   0.453   5.301  0.2500 -0.4515 -0.0932
  595THF     H710729   4.958   0.567   5.197 -0.2396 -0.7606  1.8695
  595THF     C810730   5.131   0.632   5.333  0.1941  0.1078 -1.3201
  595THF     C910731   5.134   0.616   5.487 -0.2412 -0.6428 -0.3319
  595THF    H1010732   5.122   0.734   5.312 -1.7401 -0.9261 -0.9262
  595THF    H1110733   5.219   0.595   5.272  0.8536  1.8354 -0.5780
  595THF    H1210734   5.210   0.543   5.522  0.5343  1.2475  2.9394
  595THF    H1310735   5.147   0.709   5.539 -2.5549 -1.4137  0.1919
  596THF     O110736   3.291   1.239   2.688 -0.1816 -0.2278 -0.1583
  596THF     C210737   3.361   1.303   2.581 -0.1109 -0.2567  0.3997
  596THF     C310738   3.271   1.339   2.787  0.2432  0.5504  0.2369
  596THF     H410739   3.363   1.241   2.486  0.3365 -0.4904 -3.6364
  596THF     H510740   3.465   1.319   2.615 -1.8327 -0.3112  1.5966
  596THF     H610741   3.184   1.316   2.846  0.6268  2.4179 -3.2619
  596THF     H710742   3.366   1.356   2.840 -1.6515  0.3845 -2.3356
  596THF     C810743   3.254   1.472   2.711  0.2273  0.7866  0.2304
  596THF     C910744   3.291   1.441   2.568 -0.3216  0.9484 -0.3607
  596THF    H1010745   3.315   1.545   2.755  0.6473 -1.5857 -1.0585
  596THF    H1110746   3.147   1.499   2.718 -0.3362  0.1520 -1.1581
  596THF    H1210747   3.204   1.446   2.504 -1.3943 -0.2036 -0.4062
  596THF    H1310748   3.358   1.521   2.525  0.2304  1.3307 -1.8294
  597THF     O110749   2.252   4.141   2.421 -0.3304 -0.2300 -0.7960
  597THF     C210750   2.387   4.186   2.424 -0.5218  0.1467  0.0168
  597THF     C310751   2.247   4.043   2.526 -0.5531  0.6804  0.1321
  597THF     H410752   2.407   4.290   2.384  1.9876  3.2187  1.2053
  597THF     H510753   2.446   4.122   2.361 -2.5141 -1.8916  3.7058
  597THF     H610754   2.144   4.027   2.560 -1.8322 -0.3940 -1.0544
  597THF     H710755   2.289   3.955   2.477  1.4939  0.1412  1.3397
  597THF     C810756   2.313   4.100   2.643 -0.3325 -0.3163  0.4948
  597THF     C910757   2.424   4.170   2.572 -0.3708  0.2648 -0.6420
  597THF    H1010758   2.332   4.024   2.713  1.0534  1.6546 -2.2937
  597THF    H1110759   2.247   4.178   2.691  1.1582  1.3776  0.9658
  597THF    H1210760   2.420   4.277   2.610 -1.6761  1.4927 -0.3100
  597THF    H1310761   2.521   4.122   2.590 -3.3134 -0.4740  1.0951
  598THF     O110762   4.319   2.882   0.038 -0.5831 -0.1639 -0.1047
  598THF     C210763   4.275   2.783  -0.053 -0.0212 -0.4564  0.4830
  598THF     C310764   4.454   2.838   0.073 -0.2195 -0.2840  0.6245
  598THF     H410765   4.195   2.819  -0.113 -1.0377 -0.4492  1.4921
  598THF     H510766   4.220   2.724   0.012 -0.4747  1.6228 -0.1350
  598THF     H610767   4.514   2.926   0.102  0.6640 -0.8371 -0.0140
  598THF     H710768   4.457   2.749   0.145 -1.0589 -0.3861 -2.8328
  598THF     C810769   4.522   2.789  -0.056 -0.5573  0.3527 -0.3252
  598THF     C910770   4.403   2.727  -0.129 -0.2233  0.0044  0.2377
  598THF    H1010771   4.601   2.718  -0.023 -1.3422 -1.3464 -0.8610
  598THF    H1110772   4.558   2.878  -0.110  0.0012 -0.5786  1.2340
  598THF    H1210773   4.404   2.759  -0.237  2.6071 -0.2022 -0.2035
  598THF    H1310774   4.421   2.616  -0.137  0.8289 -1.0428  0.9291
  599THF     O110775   0.448   4.876   0.057 -0.3342  0.1431 -0.0076
  599THF     C210776   0.431   4.864  -0.082 -0.3979 -0.1864  0.4157
  599THF     C310777   0.575   4.815   0.089 -0.2377  0.0165 -0.0437
  599THF     H410778   0.472   4.963  -0.118  0.9125  0.4465  0.6819
  599THF     H510779   0.328   4.844  -0.110 -1.8061 -3.2262 -0.1870
  599THF     H610780   0.631   4.879   0.146 -2.6753 -0.0996 -4.0797
  599THF     H710781   0.558   4.742   0.165  1.1093  3.5627 -1.5281
  599THF     C810782   0.642   4.762  -0.032 -0.7572 -0.4362  0.3077
  599THF     C910783   0.521   4.746  -0.125 -0.0111 -0.8614 -0.5125
  599THF    H1010784   0.706   4.681  -0.012 -0.8153  1.4046 -1.5434
  599THF    H1110785   0.711   4.838  -0.065 -0.4990  2.0297  0.1634
  599THF    H1210786   0.541   4.755  -0.234  0.6859 -2.1249 -2.4558
  599THF    H1310787   0.466   4.650  -0.106 -0.5208 -0.4522  1.6410
  600THF     O110788   0.456   0.176   1.238 -0.4382 -0.0577 -0.3597
  600THF     C210789   0.328   0.208   1.182 -0.1946 -0.4626 -0.0356
  600THF     C310790   0.466   0.228   1.374 -0.1570  0.0997  0.2088
  600THF     H410791   0.274   0.110   1.162  0.7352  1.3904 -0.7209
  600THF     H510792   0.342   0.265   1.085 -0.4618 -1.4691 -0.9659
  600THF     H610793   0.414   0.152   1.437 -0.1983 -1.9381  0.2259
  600THF     H710794   0.573   0.229   1.397 -0.0675 -1.7967  1.3575
  600THF     C810795   0.373   0.350   1.358 -0.3442  0.4150  0.8344
  600THF     C910796   0.257   0.296   1.278 -0.6798  0.2164 -0.0117
  600THF    H1010797   0.423   0.427   1.303  0.5560  1.0504  0.6910
  600THF    H1110798   0.339   0.387   1.456  1.0003  1.1536 -1.2568
  600THF    H1210799   0.193   0.231   1.329 -0.8697 -0.5795 -2.9292
  600THF    H1310800   0.197   0.365   1.221 -2.7005 -0.3506 -1.7302
  601THF     O110801   2.507   3.082   4.758  0.3948  0.0633  0.1658
  601THF     C210802   2.393   3.025   4.700 -1.1265 -0.1651 -0.0080
  601THF     C310803   2.607   3.111   4.662  0.2215 -0.2149  0.3430
  601THF     H410804   2.302   3.050   4.760 -0.2492 -1.0306  2.4048
  601THF     H510805   2.396   2.916   4.685  0.6800  0.2434  1.2286
  601THF     H610806   2.643   3.211   4.666 -0.0359 -0.0833  1.4778
  601THF     H710807   2.699   3.061   4.667  1.7043  0.2336 -1.0050
  601THF     C810808   2.544   3.080   4.518 -0.3240 -0.2035  0.3098
  601THF     C910809   2.395   3.067   4.554  0.4093 -0.3701 -0.2782
  601THF    H1010810   2.581   2.984   4.471 -2.5374  0.1037 -0.0689
  601THF    H1110811   2.568   3.151   4.440 -1.9960 -0.4911  2.7808
  601THF    H1210812   2.353   3.166   4.553 -0.8531  1.8056  0.5935
  601THF    H1310813   2.350   3.002   4.477 -1.0998 -3.5379 -2.3383
  602THF     O110814   1.856   0.883   2.641  0.0172 -0.3962  0.4662
  602THF     C210815   1.873   0.745   2.666 -0.2746  0.3451  0.1275
  602THF     C310816   1.983   0.938   2.592  0.1803  0.1818 -0.0151
  602THF     H410817   1.776   0.693   2.656 -0.7861  1.5505  1.5823
  602THF     H510818   1.898   0.731   2.770  0.6579 -2.4399  2.0092
  602THF     H610819   1.977   1.035   2.552 -1.6595  2.4389 -0.1398
  602THF     H710820   2.063   0.930   2.665  0.5688 -0.4814 -1.8677
  602THF     C810821   2.018   0.822   2.486 -0.2799 -0.1482 -0.0035
  602THF     C910822   1.974   0.693   2.560  0.0342 -0.4542  0.0208
  602THF    H1010823   2.126   0.817   2.452  1.6805  0.6083 -1.0934
  602THF    H1110824   1.953   0.837   2.403  0.1164  0.6912  0.6044
  602THF    H1210825   1.925   0.637   2.488 -0.0982  1.5904 -0.9561
  602THF    H1310826   2.065   0.658   2.600 -0.5877  0.8109  2.9769
  603THF     O110827   0.759   2.309   3.570  0.0997  0.3850  0.2539
  603THF     C210828   0.813   2.244   3.453 -0.2276 -0.6884  0.0755
  603THF     C310829   0.743   2.204   3.663 -0.0801 -0.0608  0.2633
  603THF     H410830   0.859   2.322   3.391  2.2931  0.1335 -2.2412
  603THF     H510831   0.732   2.189   3.407 -1.1550  1.1852  0.2031
  603THF     H610832   0.763   2.238   3.757 -2.4525 -0.2097  2.2369
  603THF     H710833   0.640   2.157   3.656 -2.2729  1.0451 -0.7649
  603THF     C810834   0.848   2.101   3.627  0.2952 -0.0864 -0.2171
  603THF     C910835   0.928   2.155   3.511  0.5386 -0.2366 -0.3963
  603THF    H1010836   0.802   2.007   3.599  2.0081 -1.1690 -2.9866
  603THF    H1110837   0.904   2.084   3.716 -2.2503 -2.3421  2.4102
  603THF    H1210838   1.007   2.229   3.538  3.1623  2.1049  3.0062
  603THF    H1310839   0.965   2.082   3.435  0.5534  0.0696 -0.3041
  604THF     O110840   0.725   0.762   2.374  0.2377 -0.7704  0.2612
  604THF     C210841   0.829   0.845   2.423 -0.3504 -0.2364 -0.2698
  604THF     C310842   0.699   0.666   2.482  0.4336  0.1239 -0.2824
  604THF     H410843   0.781   0.910   2.494 -1.8970  0.3900  0.8455
  604THF     H510844   0.873   0.906   2.349  1.1498 -1.8349  0.8977
  604THF     H610845   0.628   0.722   2.550 -0.4379 -0.1628  0.0409
  604THF     H710846   0.661   0.577   2.446  1.1214  2.6742  2.2835
  604THF     C810847   0.837   0.633   2.541 -0.8399  0.6268  0.0154
  604THF     C910848   0.922   0.745   2.484 -0.4281 -0.1682 -0.7676
  604THF    H1010849   0.882   0.546   2.503  0.8982  0.4566  2.6729
  604THF    H1110850   0.838   0.646   2.647 -0.3635 -0.1903 -1.0731
  604THF    H1210851   0.988   0.795   2.555 -0.1771 -2.3220  2.9243
  604THF    H1310852   0.985   0.692   2.410  0.9878  0.5877  0.9703
  605THF     O110853   2.003   2.150   3.522 -0.0724  0.0999 -0.4809
  605THF     C210854   2.090   2.257   3.485 -0.2937  0.5151 -0.0853
  605THF     C310855   1.877   2.156   3.457 -0.2078 -1.1463 -0.3293
  605THF     H410856   2.130   2.248   3.385  1.8599 -0.6637 -0.2733
  605THF     H510857   2.176   2.258   3.547 -1.3481  1.2067 -2.5678
  605THF     H610858   1.876   2.104   3.362  1.2610  0.8239 -2.3963
  605THF     H710859   1.795   2.104   3.513 -0.8945  0.7186 -1.3134
  605THF     C810860   1.853   2.303   3.450  0.3530  0.2428  0.1435
  605THF     C910861   1.982   2.369   3.507  0.4330 -0.0366 -0.7551
  605THF    H1010862   1.766   2.337   3.502 -1.1027 -2.1080  0.9713
  605THF    H1110863   1.837   2.330   3.349  0.1937  0.5185 -0.6058
  605THF    H1210864   1.996   2.466   3.454 -0.9382 -1.5719 -0.6605
  605THF    H1310865   1.979   2.377   3.621  0.0212 -0.0891  0.8557
  606THF     O110866   1.748   5.346   1.760 -0.5375  0.0001 -0.2027
  606THF     C210867   1.876   5.281   1.777 -0.3762  0.4175 -0.4389
  606THF     C310868   1.777   5.467   1.702 -0.0901 -0.5658 -0.1742
  606THF     H410869   1.932   5.255   1.689 -1.0922 -0.2038  2.5946
  606THF     H510870   1.858   5.192   1.839 -1.1339 -0.0316 -1.2856
  606THF     H610871   1.816   5.445   1.603 -2.8236 -1.1559 -3.2909
  606THF     H710872   1.698   5.544   1.685 -1.1452  0.3820 -1.5695
  606THF     C810873   1.898   5.517   1.784 -0.4495 -0.3511  0.3699
  606THF     C910874   1.947   5.393   1.849 -0.0579 -0.1439  0.5519
  606THF    H1010875   1.867   5.588   1.864  1.6249  1.2604  1.9119
  606THF    H1110876   1.964   5.563   1.709 -1.4526  2.5867 -0.0081
  606THF    H1210877   2.056   5.394   1.839  2.0032  0.3442  0.3091
  606THF    H1310878   1.936   5.389   1.959 -0.3293  1.3750  1.5421
  607THF     O110879   3.657   0.649   3.461 -1.0480 -0.0382 -0.1998
  607THF     C210880   3.638   0.672   3.593 -0.4778 -0.4671 -1.1832
  607THF     C310881   3.530   0.648   3.394 -0.2374 -0.6238  0.5671
  607THF     H410882   3.726   0.710   3.642 -1.5161 -2.5368 -1.3632
  607THF     H510883   3.627   0.573   3.640  1.1184  0.9998 -1.0128
  607THF     H610884   3.527   0.683   3.291 -0.9465  2.1140 -2.4685
  607THF     H710885   3.504   0.541   3.383  2.3695  1.8228 -1.8208
  607THF     C810886   3.432   0.709   3.494 -0.1254 -0.0719  0.3615
  607THF     C910887   3.510   0.758   3.612 -0.2630  0.9123  0.1352
  607THF    H1010888   3.363   0.627   3.533 -2.3753  0.3892 -3.0723
  607THF    H1110889   3.374   0.785   3.437 -0.5836 -1.6424 -2.9776
  607THF    H1210890   3.540   0.866   3.614  0.8888  1.2820  0.7484
  607THF    H1310891   3.476   0.748   3.715  2.2693  1.8072 -1.1882
  608THF     O110892   5.270   3.306   0.930  0.1465 -0.0210 -0.6507
  608THF     C210893   5.160   3.386   0.964 -0.0628  0.1740 -0.2793
  608THF     C310894   5.315   3.240   1.049 -0.0155 -0.8814 -0.8561
  608THF     H410895   5.073   3.328   0.977 -2.6908  0.1679  1.7584
  608THF     H510896   5.140   3.455   0.890  0.8890  0.1359  1.8701
  608THF     H610897   5.238   3.168   1.077  3.0054 -0.4411  1.3245
  608THF     H710898   5.406   3.184   1.040  1.0120  0.0046  1.7690
  608THF     C810899   5.316   3.354   1.153 -0.1915 -0.4122 -0.3156
  608THF     C910900   5.198   3.440   1.104  0.0829 -0.0671 -0.0125
  608THF    H1010901   5.411   3.411   1.163 -1.7158  0.8508  2.2085
  608THF    H1110902   5.284   3.292   1.237  0.4626 -0.7835 -0.6741
  608THF    H1210903   5.116   3.452   1.177 -0.1025  2.0593  0.5462
  608THF    H1310904   5.239   3.546   1.102 -0.7834  2.7589 -1.0483
  609THF     O110905   2.436   4.548   0.440 -0.4381 -0.3183 -0.4922
  609THF     C210906   2.338   4.502   0.342  0.1584 -0.2738  0.0120
  609THF     C310907   2.365   4.587   0.556 -0.5143 -0.0372 -0.0211
  609THF     H410908   2.344   4.396   0.328  0.1726  2.5760  2.0324
  609THF     H510909   2.368   4.548   0.248  3.1944  0.7524  2.1041
  609THF     H610910   2.338   4.500   0.615 -1.4416 -0.1345 -1.3480
  609THF     H710911   2.425   4.658   0.614  1.0836  1.7324 -1.2869
  609THF     C810912   2.236   4.655   0.499  0.3381 -0.3878  0.5715
  609THF     C910913   2.204   4.544   0.398  0.0836 -0.3054 -0.0292
  609THF    H1010914   2.255   4.751   0.445 -1.1181  2.6291 -1.4674
  609THF    H1110915   2.162   4.672   0.575  0.8698 -0.9599 -0.3833
  609THF    H1210916   2.165   4.463   0.456  1.2536  0.5294 -2.0366
  609THF    H1310917   2.129   4.576   0.324  0.1896  1.4709  1.0810
  610THF     O110918   0.619   1.707   2.789  0.2659 -0.3797  0.2975
  610THF     C210919   0.647   1.573   2.822 -0.2508  0.0402  0.0090
  610THF     C310920   0.653   1.727   2.654  0.3442 -0.4011  0.2434
  610THF     H410921   0.567   1.514   2.777  1.5736  0.2663 -0.5105
  610THF     H510922   0.639   1.567   2.928 -2.4370  1.3922 -0.8226
  610THF     H610923   0.555   1.713   2.600  0.1652 -1.8730  0.4706
  610THF     H710924   0.669   1.833   2.635 -0.9889  2.6669 -0.3965
  610THF     C810925   0.776   1.629   2.634 -0.1091  0.6356 -0.1065
  610THF     C910926   0.777   1.545   2.757 -0.4722  0.0932  0.3944
  610THF    H1010927   0.877   1.675   2.630 -0.7547  0.8087  0.2792
  610THF    H1110928   0.766   1.569   2.544 -0.2986  0.7011  2.0966
  610THF    H1210929   0.797   1.434   2.743 -1.1182  0.2647 -1.2211
  610THF    H1310930   0.858   1.570   2.821  0.5228 -4.4788  1.2312
  611THF     O110931   1.140   0.754   5.189  0.1045  0.1999  0.2289
  611THF     C210932   1.112   0.620   5.150  0.4148 -0.1137 -0.2294
  611THF     C310933   1.190   0.823   5.074 -0.1586  0.0019 -0.9645
  611THF     H410934   1.012   0.589   5.196 -2.0778 -1.3345  0.0546
  611THF     H510935   1.187   0.546   5.175 -2.8438  0.7361 -1.2165
  611THF     H610936   1.193   0.936   5.074  0.9055  2.5383  0.0902
  611THF     H710937   1.290   0.785   5.057  1.2975  0.3773  1.0456
  611THF     C810938   1.108   0.765   4.961  0.7902  0.6432  0.2437
  611THF     C910939   1.084   0.621   4.998  0.0842  0.2779  0.0336
  611THF    H1010940   1.153   0.772   4.866 -1.2781  0.4066 -0.0199
  611THF    H1110941   1.012   0.823   4.953  0.1589 -1.4872 -0.2922
  611THF    H1210942   0.987   0.581   4.971 -0.0163 -0.0628 -3.0790
  611THF    H1310943   1.155   0.552   4.952 -0.5357  1.2038 -1.9907
  612THF     O110944   1.671   3.082   3.340  0.7621 -0.2804 -0.7766
  612THF     C210945   1.713   3.007   3.450 -0.2232  0.5102 -0.3456
  612THF     C310946   1.702   3.013   3.221 -0.0601  0.0010  0.5303
  612THF     H410947   1.653   2.920   3.472 -0.6902  0.6894 -0.6570
  612THF     H510948   1.710   3.065   3.538 -0.2538  1.0593 -0.5257
  612THF     H610949   1.630   2.933   3.204  0.6334 -1.7585 -0.6462
  612THF     H710950   1.704   3.077   3.134 -0.3106 -0.5612 -0.4485
  612THF     C810951   1.843   2.965   3.258  0.7152  0.4777  0.3189
  612THF     C910952   1.847   2.956   3.407  0.6949  0.2214 -0.0367
  612THF    H1010953   1.917   3.039   3.227  0.5946  0.6999  2.2064
  612THF    H1110954   1.872   2.868   3.214  0.5437  1.6896  0.8523
  612THF    H1210955   1.852   2.847   3.440 -0.3659  0.8980  1.4080
  612THF    H1310956   1.931   3.001   3.454 -0.5167 -2.7693  0.3414
  613THF     O110957   0.805   1.035   0.333 -0.6672 -0.1849  0.0175
  613THF     C210958   0.910   1.127   0.368 -0.7622  0.0763 -0.4229
  613THF     C310959   0.727   1.041   0.446  0.4958  0.2181 -0.0895
  613THF     H410960   0.959   1.161   0.279 -2.0578 -0.7025 -1.2844
  613THF     H510961   0.992   1.075   0.423 -0.2651  2.2465  1.7792
  613THF     H610962   0.634   0.998   0.411 -0.9141  2.4858  0.1521
  613THF     H710963   0.779   0.972   0.517  0.3863 -1.4289  1.5518
  613THF     C810964   0.713   1.185   0.492 -0.0233  0.4481 -0.2467
  613THF     C910965   0.836   1.245   0.435  0.5058  0.3406 -0.5251
  613THF    H1010966   0.708   1.186   0.605  1.0375 -0.9232  3.4446
  613THF    H1110967   0.616   1.227   0.454 -1.7928 -1.1062 -0.2462
  613THF    H1210968   0.790   1.304   0.352  0.7050  0.7221  0.2945
  613THF    H1310969   0.896   1.303   0.505 -1.2928  2.1156 -0.0983
  614THF     O110970   0.664   2.322   1.540  0.4318  0.6952 -0.2424
  614THF     C210971   0.694   2.440   1.465  0.6783 -0.3028 -0.3844
  614THF     C310972   0.537   2.345   1.613  0.0894  0.6987  0.5066
  614THF     H410973   0.739   2.418   1.371 -1.0619  2.3182  0.9559
  614THF     H510974   0.760   2.507   1.519  1.9976  0.7037  1.5846
  614THF     H610975   0.491   2.252   1.655  0.8054 -1.9075  0.5336
  614THF     H710976   0.555   2.412   1.699  0.5770 -0.1643  1.4865
  614THF     C810977   0.455   2.416   1.499 -0.7738 -0.0080 -0.5431
  614THF     C910978   0.557   2.504   1.435 -0.2318 -0.2663 -0.2790
  614THF    H1010979   0.368   2.475   1.547 -2.6574  1.2997  4.1073
  614THF    H1110980   0.426   2.354   1.422  0.5809  1.3398  0.4537
  614THF    H1210981   0.541   2.517   1.326 -1.7192  0.3807  3.1901
  614THF    H1310982   0.565   2.598   1.482  0.9730 -0.0358 -0.2164
  615THF     O110983   3.656   3.873   2.877 -0.2343 -0.1517  0.1544
  615THF     C210984   3.718   3.794   2.785  0.0132 -0.2956  0.3606
  615THF     C310985   3.567   3.786   2.946  0.4617 -0.3750 -0.7079
  615THF     H410986   3.797   3.745   2.838 -2.9132 -2.4814 -1.6057
  615THF     H510987   3.744   3.869   2.709  1.5089  0.6114  2.2350
  615THF     H610988   3.615   3.755   3.040  2.3576 -0.7454  1.3515
  615THF     H710989   3.487   3.860   2.959  2.9393  0.9240  0.1612
  615THF     C810990   3.533   3.668   2.857 -0.7105  0.7257  0.0669
  615THF     C910991   3.607   3.706   2.731 -0.3100 -0.2569 -0.3246
  615THF    H1010992   3.429   3.648   2.827 -0.5614  2.3786 -1.2173
  615THF    H1110993   3.568   3.575   2.899 -3.0785  2.0988  0.0801
  615THF    H1210994   3.642   3.614   2.684 -0.0266 -0.1026 -0.7722
  615THF    H1310995   3.532   3.743   2.660  1.2021 -0.5697 -0.4084
  616THF     O110996   4.788   3.909   2.421 -0.4048  0.1144 -0.6475
  616THF     C210997   4.809   4.004   2.519 -0.5437  0.5933  0.1061
  616THF     C310998   4.649   3.879   2.434  0.3346 -0.2051  0.2406
  616THF     H410999   4.780   4.100   2.475 -0.3529  3.0265 -1.0945
  616THF     H511000   4.913   4.021   2.549  0.7347  1.1627 -0.3572
  616THF     H611001   4.590   3.960   2.393 -0.5836 -3.6148  2.8339
  616THF     H711002   4.619   3.782   2.385  0.1953 -4.3377 -0.5713
  616THF     C811003   4.623   3.880   2.586 -0.1970 -0.1304  0.1309
  616THF     C911004   4.730   3.970   2.645 -0.2015  0.0426  0.0776
  616THF    H1011005   4.647   3.777   2.610  1.0517  0.2052 -0.3310
  616THF    H1111006   4.523   3.911   2.617 -0.2575  2.9496  2.0077
  616THF    H1211007   4.682   4.062   2.678  0.7336  1.6941 -0.7374
  616THF    H1311008   4.796   3.920   2.709  1.8341 -1.3729 -0.0643
  617THF     O111009   0.563   3.032   5.231  0.3057 -0.5951 -0.1361
  617THF     C211010   0.557   2.946   5.119  0.3652 -1.4002 -0.2305
  617THF     C311011   0.465   3.133   5.241  0.1606  0.4973  0.5991
  617THF     H411012   0.570   2.842   5.133 -0.5669  1.0736 -3.4163
  617THF     H511013   0.634   2.983   5.042  0.5633 -1.0730 -0.2462
  617THF     H611014   0.390   3.103   5.317 -1.0974  2.1617  1.2340
  617THF     H711015   0.508   3.224   5.276 -0.0346 -1.8335  0.2995
  617THF     C811016   0.399   3.124   5.103  0.1754  0.4078  0.0766
  617THF     C911017   0.417   2.981   5.069  0.1497 -0.0094  0.6751
  617THF    H1011018   0.445   3.185   5.024  0.3987 -0.9238 -1.8368
  617THF    H1111019   0.295   3.160   5.105  2.8870 -0.3568 -2.0172
  617THF    H1211020   0.340   2.922   5.125 -1.6765 -0.3822 -2.3322
  617THF    H1311021   0.400   2.961   4.959  0.9418  0.1261  1.2860
  618THF     O111022   3.362   3.710   1.740  0.1546  0.1562 -0.1181
  618THF     C211023   3.416   3.795   1.837 -0.2882  0.2513  0.3179
  618THF     C311024   3.429   3.587   1.754 -0.3908 -0.5053  0.8596
  618THF     H411025   3.344   3.876   1.853 -2.6816 -1.6114  2.4181
  618THF     H511026   3.514   3.830   1.818 -0.7136  0.3992  1.2959
  618THF     H611027   3.380   3.497   1.712 -0.7021  0.0119 -2.3806
  618THF     H711028   3.519   3.587   1.704 -3.8681 -0.8817  2.8356
  618THF     C811029   3.445   3.568   1.903 -0.2107  0.4581 -0.1879
  618THF     C911030   3.407   3.694   1.954 -0.0409  0.7306 -0.6247
  618THF    H1011031   3.546   3.560   1.932 -1.3767 -2.3202  1.8369
  618THF    H1111032   3.400   3.478   1.953  1.7821 -1.8135  2.7691
  618THF    H1211033   3.305   3.675   1.992 -0.7762 -1.2885 -0.7105
  618THF    H1311034   3.451   3.735   2.043 -0.4583  0.9018 -1.5111
  619THF     O111035   1.074   1.959   4.413  0.1023  0.2932  0.4549
  619THF     C211036   1.079   1.836   4.344  0.0534 -0.7736  0.3707
  619THF     C311037   1.003   1.944   4.533  0.0220  0.4971 -0.0635
  619THF     H411038   1.169   1.825   4.274  1.9915  3.9908 -2.7961
  619THF     H511039   0.991   1.828   4.284  0.6182  1.7193  2.0120
  619THF     H611040   1.069   1.972   4.613  0.9600 -2.3338  0.9296
  619THF     H711041   0.918   2.009   4.532 -0.4340 -0.7103 -0.2394
  619THF     C811042   0.959   1.804   4.545 -0.5951  0.4300 -0.2283
  619THF     C911043   1.059   1.734   4.456 -0.2052 -0.3182  0.6433
  619THF    H1011044   0.860   1.786   4.504 -0.8532  1.0120 -0.6638
  619THF    H1111045   0.947   1.765   4.641 -0.2331 -0.3119  2.8126
  619THF    H1211046   1.152   1.714   4.505  1.3906  0.7350  0.8531
  619THF    H1311047   1.017   1.644   4.416  0.4504  0.8821 -0.5428
  620THF     O111048   4.738   3.070   2.801  0.0348  0.5534 -0.6388
  620THF     C211049   4.698   3.119   2.921  0.5333 -0.1395 -0.1863
  620THF     C311050   4.880   3.068   2.810 -0.6073 -0.1406 -0.5995
  620THF     H411051   4.591   3.105   2.952  2.2728 -0.4858 -1.2440
  620THF     H511052   4.696   3.229   2.926  1.3298  1.5035 -0.2526
  620THF     H611053   4.927   2.990   2.750 -1.7168 -2.9782 -2.0154
  620THF     H711054   4.929   3.160   2.766 -1.2678  1.2761  0.8057
  620THF     C811055   4.918   3.052   2.954  0.0268  0.1287 -0.0458
  620THF     C911056   4.784   3.040   3.023  0.0075 -0.0104 -1.2202
  620THF    H1011057   4.952   3.142   2.995 -0.6993  1.1871  0.6677
  620THF    H1111058   4.983   2.971   2.986 -1.1757 -2.2875  3.4708
  620THF    H1211059   4.748   2.935   3.023  0.9492 -1.2045  1.9717
  620THF    H1311060   4.776   3.091   3.119  1.5270  2.7333 -0.3371
  621THF     O111061   5.341   2.020   3.386  0.0392 -0.3229 -0.5119
  621THF     C211062   5.227   1.940   3.385 -0.0882 -0.9026  0.3966
  621THF     C311063   5.452   1.951   3.444  0.6309  0.4866  0.4413
  621THF     H411064   5.181   1.967   3.290 -0.4097  0.6993 -2.2053
  621THF     H511065   5.160   1.973   3.460 -1.2042  1.0650  3.0155
  621THF     H611066   5.543   1.992   3.410 -0.2463 -0.5548  0.8037
  621THF     H711067   5.443   1.982   3.551  0.8037  2.3929  1.5349
  621THF     C811068   5.429   1.803   3.404 -1.2251 -0.4293  0.4503
  621THF     C911069   5.276   1.795   3.393 -0.3638  0.0041  0.3409
  621THF    H1011070   5.469   1.739   3.476  1.1682  2.4570 -0.4737
  621THF    H1111071   5.473   1.783   3.311  1.7623  1.4461  2.1858
  621THF    H1211072   5.233   1.736   3.310 -1.6759  2.5775  0.4849
  621THF    H1311073   5.244   1.746   3.487  1.4232 -0.2748  1.2064
  622THF     O111074   4.556   1.097   0.934 -0.5326 -0.4304  0.5705
  622THF     C211075   4.493   1.005   1.023 -0.5285  0.2551 -0.3106
  622THF     C311076   4.467   1.121   0.826  0.9786  0.0248  0.2702
  622THF     H411077   4.532   1.018   1.122  0.4384 -0.5176 -2.5299
  622THF     H511078   4.494   0.897   0.996  0.4347 -1.8871 -2.0583
  622THF     H611079   4.503   1.217   0.779 -0.6659 -0.2037 -0.1039
  622THF     H711080   4.465   1.041   0.753 -1.3852  0.0513 -2.5263
  622THF     C811081   4.329   1.126   0.899  0.6271 -0.5492  0.1777
  622THF     C911082   4.348   1.045   1.027 -0.4962  0.1075  0.2254
  622THF    H1011083   4.259   1.090   0.826 -0.9396  1.3394 -1.9674
  622THF    H1111084   4.300   1.231   0.923  1.9076 -0.6922 -1.2750
  622THF    H1211085   4.328   1.098   1.124 -2.9315  0.8960 -1.0435
  622THF    H1311086   4.283   0.960   1.022 -0.8457 -2.7270 -0.7557
  623THF     O111087   4.505   0.369   0.789  0.1269 -0.4049 -0.2433
  623THF     C211088   4.417   0.266   0.744 -0.0604  1.1734 -0.1805
  623THF     C311089   4.598   0.393   0.678  0.2155 -0.1283 -0.6332
  623THF     H411090   4.327   0.257   0.800  1.6002  2.6087  1.0560
  623THF     H511091   4.461   0.170   0.748 -1.5469  1.0981  1.4097
  623THF     H611092   4.648   0.494   0.680 -0.2019  1.8210  3.0020
  623THF     H711093   4.676   0.320   0.669  0.0960  1.4020 -3.0662
  623THF     C811094   4.509   0.397   0.555  0.0386  0.1223  0.2285
  623THF     C911095   4.389   0.311   0.594 -0.2934  0.2251 -1.0825
  623THF    H1011096   4.558   0.359   0.466 -0.2228  2.8136 -0.0425
  623THF    H1111097   4.478   0.496   0.542 -1.3879 -2.4835  0.2282
  623THF    H1211098   4.304   0.375   0.585 -0.3802 -4.6263  0.1081
  623THF    H1311099   4.376   0.225   0.534 -0.5093 -0.3957 -0.5064
  624THF     O111100   1.518   4.960   0.612 -0.3948 -0.2478  0.3235
  624THF     C211101   1.620   4.866   0.645 -0.7401 -0.2352  0.5746
  624THF     C311102   1.538   5.074   0.695  0.1321 -0.4743  0.1249
  624THF     H411103   1.705   4.893   0.576  1.8598  1.4419 -0.9428
  624THF     H511104   1.592   4.769   0.608  0.0784 -1.2139 -1.6163
  624THF     H611105   1.593   5.158   0.643  1.0289 -1.1418 -0.8948
  624THF     H711106   1.437   5.106   0.718 -0.9839 -2.0476  0.1784
  624THF     C811107   1.610   5.031   0.820 -0.9024 -0.4531  0.3666
  624THF     C911108   1.646   4.890   0.789 -0.4529  0.5355  0.3789
  624THF    H1011109   1.561   5.043   0.913  0.4563 -0.6835 -1.3100
  624THF    H1111110   1.691   5.104   0.838 -0.4032 -1.5766  0.1190
  624THF    H1211111   1.747   4.880   0.820  0.6056  1.0239 -1.6127
  624THF    H1311112   1.589   4.830   0.853 -1.2247  0.3151  0.5861
  625THF     O111113   0.460   3.155   2.362 -0.1132 -0.0178 -0.4218
  625THF     C211114   0.574   3.068   2.344  0.4931  0.7848  0.7979
  625THF     C311115   0.386   3.102   2.467  0.6153 -0.8482  0.6821
  625THF     H411116   0.644   3.127   2.287  1.5520  1.6253  0.9820
  625THF     H511117   0.557   2.979   2.285 -0.2238 -1.3360 -1.9628
  625THF     H611118   0.312   3.178   2.502  0.1815  1.8919  0.8774
  625THF     H711119   0.315   3.024   2.442 -1.8129  1.7561 -2.0586
  625THF     C811120   0.488   3.056   2.568 -0.2064 -0.2126  0.8904
  625THF     C911121   0.615   3.042   2.482 -0.4799  0.2078  0.0544
  625THF    H1011122   0.466   2.958   2.616 -2.2553  0.3159 -3.5736
  625THF    H1111123   0.524   3.126   2.647  0.2290 -0.8262  0.8568
  625THF    H1211124   0.674   3.125   2.494 -1.4598  1.0685 -1.6459
  625THF    H1311125   0.686   2.953   2.481  0.6892  0.8316  0.9089
  626THF     O111126   2.106   4.675   3.960  0.0534 -0.2668 -0.3886
  626THF     C211127   2.075   4.555   3.895  0.0279  0.1453  0.5921
  626THF     C311128   2.169   4.630   4.082  0.3866 -0.1966 -0.4376
  626THF     H411129   2.044   4.572   3.792  0.1568  0.6677  1.8611
  626THF     H511130   1.976   4.528   3.930 -2.7071 -2.0447 -0.3446
  626THF     H611131   2.219   4.702   4.139 -1.2163 -0.1581 -0.3821
  626THF     H711132   2.096   4.585   4.145 -2.5261  3.0227 -0.1778
  626THF     C811133   2.269   4.526   4.039 -0.0026 -0.0977 -1.0051
  626THF     C911134   2.191   4.461   3.921  0.4663  0.9630  0.5000
  626THF    H1011135   2.286   4.460   4.117  0.8031  0.4003 -2.1228
  626THF    H1111136   2.359   4.569   3.997 -0.8483  1.0454  2.4450
  626THF    H1211137   2.264   4.468   3.842  0.7894  0.6983 -1.3618
  626THF    H1311138   2.152   4.360   3.921  0.8997 -0.4044 -0.9880
  627THF     O111139   2.915   1.867   3.267 -1.1349 -0.2877 -0.5055
  627THF     C211140   2.921   1.998   3.320 -0.4269  0.1981 -0.1188
  627THF     C311141   2.884   1.874   3.132 -0.0544  0.3010 -0.5046
  627THF     H411142   2.975   1.999   3.418  1.2461  0.0664 -1.0931
  627THF     H511143   2.818   2.030   3.333  0.7550  1.6651  2.5191
  627THF     H611144   2.903   1.776   3.082 -0.5963 -5.1530  2.0257
  627THF     H711145   2.783   1.900   3.113  1.8519 -0.5348 -0.2262
  627THF     C811146   2.965   1.994   3.078 -0.0830  0.1066 -0.0677
  627THF     C911147   3.000   2.067   3.209  0.4332 -0.2813 -0.3567
  627THF    H1011148   2.905   2.055   3.004  0.6907 -0.0071 -2.8762
  627THF    H1111149   3.052   1.943   3.027  0.0649 -2.0851  1.1000
  627THF    H1211150   3.102   2.031   3.230 -1.8195  0.0742  0.5326
  627THF    H1311151   2.981   2.175   3.199  0.2234  0.8995 -0.5674
  628THF     O111152   3.539   0.197   3.924  0.1278  0.3732 -1.0818
  628THF     C211153   3.426   0.266   3.862 -0.2266 -0.0950  0.4044
  628THF     C311154   3.569   0.265   4.045  0.4104 -0.6013  0.2095
  628THF     H411155   3.336   0.230   3.919  1.5862  1.0117  1.7496
  628THF     H511156   3.421   0.247   3.761 -2.2888 -0.8865  0.6656
  628THF     H611157   3.495   0.245   4.122 -0.3394 -0.2884  0.7043
  628THF     H711158   3.668   0.236   4.079 -1.4516  0.1118 -2.0736
  628THF     C811159   3.546   0.421   4.008 -0.1570 -0.0547 -0.2152
  628THF     C911160   3.459   0.408   3.882 -0.5070 -0.3193  0.2869
  628THF    H1011161   3.634   0.468   3.969 -0.6990 -0.2491  0.6759
  628THF    H1111162   3.489   0.474   4.084 -0.9396 -0.3020 -0.0590
  628THF    H1211163   3.382   0.481   3.885  0.7142 -1.4600  0.0501
  628THF    H1311164   3.503   0.448   3.794 -0.8456  0.1612  3.3844
  629THF     O111165   1.482   3.374   1.457  0.9098  0.4302  0.1033
  629THF     C211166   1.335   3.396   1.450  0.2013  0.1607 -0.1679
  629THF     C311167   1.550   3.501   1.492  0.4528  0.1652  0.0720
  629THF     H411168   1.287   3.318   1.512  1.2565 -2.1249 -0.1848
  629THF     H511169   1.303   3.370   1.351  3.7085 -4.7829  1.4234
  629THF     H611170   1.597   3.496   1.587  1.0472 -0.9690  2.7667
  629THF     H711171   1.640   3.508   1.425  0.1280  0.1426 -0.5806
  629THF     C811172   1.442   3.605   1.454 -0.0914 -0.1931  0.2234
  629THF     C911173   1.313   3.546   1.485  0.0054  0.3809  0.6549
  629THF    H1011174   1.452   3.614   1.346  0.5526  0.0939 -2.6227
  629THF    H1111175   1.465   3.697   1.507  2.4664 -1.8597 -0.7277
  629THF    H1211176   1.297   3.558   1.589  2.2241  0.6139  0.2449
  629THF    H1311177   1.235   3.584   1.422 -0.6015 -2.0503  0.9299
  630THF     O111178   3.464   2.618   2.728  0.0173 -0.0466  0.0966
  630THF     C211179   3.580   2.694   2.750 -0.0612  1.0930  0.3178
  630THF     C311180   3.505   2.480   2.705  0.7410  1.2960 -0.4359
  630THF     H411181   3.556   2.793   2.783  1.9201 -0.9217 -2.6831
  630THF     H511182   3.644   2.699   2.664 -1.1255  1.2292  2.8956
  630THF     H611183   3.427   2.414   2.738  1.1868  0.4414 -0.8677
  630THF     H711184   3.511   2.459   2.597  0.9823  1.2783 -1.0489
  630THF     C811185   3.644   2.471   2.772 -0.4740 -1.0780  0.1694
  630THF     C911186   3.658   2.601   2.839  0.2720  0.0000  0.5814
  630THF    H1011187   3.720   2.460   2.691 -0.4465 -0.0898  0.4095
  630THF    H1111188   3.646   2.383   2.838  2.1265 -0.5982 -1.1988
  630THF    H1211189   3.613   2.592   2.933 -2.1890 -1.1106 -1.6840
  630THF    H1311190   3.758   2.634   2.848 -0.4582 -2.1027 -1.3725
  631THF     O111191   0.348   0.347   5.389 -0.6801  0.3515  0.4284
  631THF     C211192   0.253   0.248   5.362  0.5950 -0.0194  0.3272
  631THF     C311193   0.283   0.467   5.429  0.0654  0.1505 -0.0351
  631THF     H411194   0.297   0.148   5.372  0.3219  1.3392 -1.3928
  631THF     H511195   0.218   0.261   5.255 -0.3907 -1.1743 -1.2102
  631THF     H611196   0.335   0.502   5.519  0.7675 -2.1889 -1.6203
  631THF     H711197   0.284   0.543   5.353 -0.9183  2.4235  0.1865
  631THF     C811198   0.146   0.419   5.467  0.6265 -0.1393  0.2432
  631THF     C911199   0.148   0.268   5.467  0.1208 -0.4933 -1.1711
  631THF    H1011200   0.078   0.460   5.390 -1.1747  1.7852 -0.3092
  631THF    H1111201   0.119   0.461   5.566  1.6750 -1.3760 -0.7326
  631THF    H1211202   0.178   0.231   5.565  0.8304 -0.3108 -0.1818
  631THF    H1311203   0.052   0.222   5.443 -1.9446  0.3489  1.2687
  632THF     O111204   3.935   5.317   5.486 -0.3860 -0.3211  0.0796
  632THF     C211205   3.806   5.270   5.455 -0.1287  0.0882 -0.0849
  632THF     C311206   3.962   5.294   5.627  0.8299  0.2566  0.0748
  632THF     H411207   3.808   5.203   5.367  0.7662  2.4551 -0.2966
  632THF     H511208   3.738   5.351   5.439 -3.8697  0.9793  0.6629
  632THF     H611209   4.069   5.285   5.645 -1.4765 -2.4409 -0.6149
  632THF     H711210   3.933   5.380   5.685  1.8983  0.7314 -0.0452
  632THF     C811211   3.871   5.178   5.660 -0.1855  0.0339 -0.5919
  632THF     C911212   3.751   5.196   5.577 -0.2728  0.3494 -0.6171
  632THF    H1011213   3.846   5.178   5.767  0.5717  2.3068 -0.3227
  632THF    H1111214   3.909   5.083   5.625  0.8688 -0.3926  2.9242
  632THF    H1211215   3.702   5.105   5.550 -1.4172 -1.6752  2.3880
  632THF    H1311216   3.695   5.262   5.638  1.9078 -2.8351  0.4515
  633THF     O111217   4.375   2.069   3.201  0.0045  0.3043 -0.2758
  633THF     C211218   4.509   2.131   3.210  0.6798 -0.1781 -0.0166
  633THF     C311219   4.282   2.173   3.212 -0.1879  0.7438 -0.4648
  633THF     H411220   4.541   2.180   3.113  2.8089 -0.5536 -0.2315
  633THF     H511221   4.578   2.053   3.246 -1.4276 -1.4389 -0.5650
  633THF     H611222   4.254   2.215   3.115 -0.7056  1.5904 -0.7730
  633THF     H711223   4.191   2.137   3.249 -0.4864  0.9260 -0.2382
  633THF     C811224   4.356   2.286   3.291  0.2840  0.2844 -0.3910
  633THF     C911225   4.494   2.245   3.309 -0.2746  0.0990 -0.1141
  633THF    H1011226   4.306   2.321   3.387  1.7109  0.4745 -0.6407
  633THF    H1111227   4.344   2.375   3.228 -0.4672  0.1495  2.0356
  633THF    H1211228   4.565   2.327   3.301  0.4731 -4.4667 -0.4701
  633THF    H1311229   4.493   2.204   3.413  0.8847 -2.6722 -0.8405
  634THF     O111230   3.688   1.366   4.155  0.2005  0.1529 -0.3975
  634THF     C211231   3.811   1.433   4.146 -0.3255  0.2742  0.3587
  634THF     C311232   3.580   1.455   4.147  0.3848  0.6553  0.2168
  634THF     H411233   3.879   1.361   4.093  2.4014  1.1657 -0.6229
  634THF     H511234   3.848   1.466   4.242 -2.6193  1.2429  1.2899
  634THF     H611235   3.510   1.426   4.069  0.5159  0.8824 -0.3989
  634THF     H711236   3.536   1.463   4.239  1.4679  0.1939 -4.9765
  634THF     C811237   3.638   1.588   4.108 -0.2493 -0.4663 -0.3676
  634THF     C911238   3.782   1.555   4.060 -0.1489  0.1926 -0.4746
  634THF    H1011239   3.643   1.671   4.185  0.0974 -3.8238  0.8946
  634THF    H1111240   3.576   1.632   4.029  1.1002 -0.0951 -4.3061
  634THF    H1211241   3.781   1.524   3.956  0.0064  0.9230  1.8739
  634THF    H1311242   3.851   1.643   4.074 -0.8279  1.2774  0.1061
  635THF     O111243   5.390   5.301   4.321 -0.7708 -0.0054 -0.3819
  635THF     C211244   5.291   5.202   4.326  0.2670 -0.0602 -0.0303
  635THF     C311245   5.344   5.407   4.240 -0.5181  0.3848  0.1016
  635THF     H411246   5.217   5.240   4.400 -1.3605  2.2196  3.2279
  635THF     H511247   5.337   5.109   4.361  3.3723  2.2536  0.1547
  635THF     H611248   5.269   5.467   4.288 -0.4048  0.9403 -2.0901
  635THF     H711249   5.440   5.468   4.211  0.2737  1.1156  1.1242
  635THF     C811250   5.291   5.333   4.117  0.4998 -0.4526  0.0761
  635THF     C911251   5.243   5.204   4.179 -0.0971  0.2371  0.4213
  635THF    H1011252   5.355   5.318   4.038 -1.0522  0.2682 -0.0638
  635THF    H1111253   5.211   5.398   4.076  1.1048 -1.0070 -0.6600
  635THF    H1211254   5.140   5.201   4.166 -0.2529 -0.8709  0.8413
  635THF    H1311255   5.288   5.121   4.123 -0.4945 -1.6304  0.8283
  636THF     O111256   5.143   1.310   1.533 -0.4151  0.2253  0.0404
  636THF     C211257   5.118   1.203   1.631  0.0968  0.2678 -0.3324
  636THF     C311258   5.244   1.394   1.593 -0.0955  0.1821  0.5101
  636THF     H411259   5.140   1.111   1.585  0.7001  1.4219 -2.2059
  636THF     H511260   5.015   1.205   1.655  0.1615 -1.3059  0.4017
  636THF     H611261   5.343   1.360   1.552 -0.0526  0.6951 -2.2062
  636THF     H711262   5.241   1.501   1.558 -0.4865  0.0364  0.3692
  636THF     C811263   5.221   1.382   1.740  0.1456 -0.2361 -0.5335
  636THF     C911264   5.197   1.227   1.757 -0.8418 -0.5888  0.4544
  636THF    H1011265   5.142   1.446   1.777  0.8855 -1.2910  0.8090
  636THF    H1111266   5.317   1.412   1.794  1.8498 -1.2876  2.8548
  636THF    H1211267   5.300   1.187   1.769  0.9641  0.9716  2.9808
  636THF    H1311268   5.131   1.213   1.843 -0.6787 -3.0225  1.1874
  637THF     O111269   3.763   3.208   4.765  0.7281 -0.0416 -0.2481
  637THF     C211270   3.739   3.347   4.774  0.5680  0.3207  0.7050
  637THF     C311271   3.859   3.177   4.868 -0.7514  0.5176  1.1618
  637THF     H411272   3.643   3.365   4.830 -0.9658  2.0377  0.3042
  637THF     H511273   3.721   3.384   4.672 -0.2832  1.2645 -0.3208
  637THF     H611274   3.812   3.178   4.966 -0.4232  0.0529  1.4898
  637THF     H711275   3.899   3.073   4.852  2.1363 -0.6089  1.9425
  637THF     C811276   3.950   3.299   4.850  0.4580  0.7455 -0.4991
  637THF     C911277   3.853   3.410   4.847 -0.0460  1.3868  0.2567
  637THF    H1011278   3.993   3.281   4.753  0.5036 -0.7463 -0.8409
  637THF    H1111279   4.031   3.314   4.929  2.8758  2.6832 -0.4914
  637THF    H1211280   3.820   3.446   4.939 -1.1140 -0.6062 -2.2850
  637THF    H1311281   3.896   3.493   4.798 -0.6444  0.3798  1.0761
  638THF     O111282   5.184   1.969   4.568 -0.5354  0.1501 -0.1126
  638THF     C211283   5.299   2.041   4.592 -0.2859 -0.5694 -0.1956
  638THF     C311284   5.170   1.844   4.641  0.4571  0.4526  0.0317
  638THF     H411285   5.285   2.108   4.680  1.0964  0.8135 -0.4966
  638THF     H511286   5.327   2.117   4.511  3.4504  0.8695  1.3133
  638THF     H611287   5.100   1.867   4.714 -0.2269 -1.1191  0.3816
  638THF     H711288   5.127   1.763   4.577  0.6354  1.1229  0.2645
  638THF     C811289   5.314   1.824   4.694  0.0678 -0.6293 -0.3874
  638THF     C911290   5.395   1.929   4.612  0.2120  0.4980  0.3811
  638THF    H1011291   5.357   1.722   4.710  0.7783  0.3023  0.6457
  638THF    H1111292   5.319   1.857   4.806  1.4231  0.8552  2.5452
  638THF    H1211293   5.486   1.966   4.662  1.8735 -1.2345  0.2714
  638THF    H1311294   5.436   1.891   4.516 -0.2889 -2.4865 -0.8249
  639THF     O111295   5.018   1.026   4.644 -0.1177 -0.1664 -0.2777
  639THF     C211296   4.917   1.070   4.734  0.1826  0.1770  0.2881
  639THF     C311297   5.047   1.138   4.561  0.0152  0.6211  0.5135
  639THF     H411298   4.953   1.136   4.812  2.6108  0.2961  0.1588
  639THF     H511299   4.860   0.988   4.774  1.4807  0.7549 -0.2236
  639THF     H611300   5.090   1.226   4.613 -0.7237  1.6934  1.3045
  639THF     H711301   5.115   1.110   4.482 -2.9875  0.5910  0.2041
  639THF     C811302   4.898   1.160   4.514  0.4703  0.4476 -0.3523
  639THF     C911303   4.819   1.151   4.645  0.0607  0.4763  0.5815
  639THF    H1011304   4.864   1.080   4.445  2.5454 -1.1878  1.5479
  639THF    H1111305   4.886   1.255   4.470 -0.4196 -1.1150  0.0630
  639THF    H1211306   4.789   1.250   4.683 -2.1305  0.2231 -0.3344
  639THF    H1311307   4.723   1.102   4.622  1.0543 -1.0015 -0.8829
  640THF     O111308   3.421   0.419   0.263  0.1826 -0.4090 -0.1933
  640THF     C211309   3.389   0.400   0.403  1.3435 -0.1616  0.2921
  640THF     C311310   3.560   0.453   0.264 -0.5854 -0.5115  0.2094
  640THF     H411311   3.309   0.326   0.427  2.4029 -2.3973  3.2359
  640THF     H511312   3.346   0.493   0.445  0.1270 -1.8195 -1.8783
  640THF     H611313   3.604   0.439   0.164 -1.4295 -1.9050 -1.6304
  640THF     H711314   3.572   0.556   0.287 -0.3149  0.7666  1.5360
  640THF     C811315   3.625   0.370   0.378  0.4142 -0.2874 -0.1767
  640THF     C911316   3.517   0.372   0.480 -0.4937 -0.0767 -0.4397
  640THF    H1011317   3.718   0.418   0.408  1.3142 -0.1635  0.3628
  640THF    H1111318   3.642   0.272   0.346  1.1704 -1.1298  0.8588
  640THF    H1211319   3.512   0.278   0.527  3.2645  0.7817 -0.8533
  640THF    H1311320   3.544   0.445   0.562  1.9893 -0.0943 -0.5551
  641THF     O111321   1.324   5.289   1.558  0.2964  0.0642  0.1457
  641THF     C211322   1.380   5.412   1.564 -0.4770 -0.0270  0.3394
  641THF     C311323   1.297   5.259   1.423 -0.4084 -0.9879 -0.3132
  641THF     H411324   1.427   5.435   1.662  0.9118  1.5866  0.3010
  641THF     H511325   1.310   5.489   1.554  1.6504 -1.0212 -0.2505
  641THF     H611326   1.281   5.152   1.399  0.1129  1.0326 -0.4694
  641THF     H711327   1.207   5.315   1.397  1.9346  2.8934 -0.1697
  641THF     C811328   1.430   5.312   1.358 -0.3258 -0.0682  0.1129
  641THF     C911329   1.490   5.400   1.462  0.4997  0.0442 -0.3490
  641THF    H1011330   1.396   5.364   1.267  0.6969 -1.2903 -1.7818
  641THF    H1111331   1.500   5.234   1.336 -1.0080  1.5791  1.7915
  641THF    H1211332   1.574   5.347   1.496  0.6666  2.1402  6.0880
  641THF    H1311333   1.520   5.496   1.431 -0.9373  0.5049  0.8555
  642THF     O111334   1.152   1.651   4.755  0.2155  0.2899  0.2671
  642THF     C211335   1.157   1.763   4.848 -1.1139 -0.0790  0.2094
  642THF     C311336   1.274   1.575   4.785  0.9236  0.1587 -0.4965
  642THF     H411337   1.130   1.731   4.949 -2.3540 -1.3971  0.4947
  642THF     H511338   1.081   1.830   4.816  1.1198 -0.1878 -0.4927
  642THF     H611339   1.260   1.529   4.888 -1.6932  0.9230  0.5671
  642THF     H711340   1.302   1.504   4.712  0.7341 -0.9508  0.8562
  642THF     C811341   1.389   1.675   4.790  0.1386 -0.1275  0.1385
  642THF     C911342   1.304   1.803   4.823 -0.0374 -0.3232 -0.0891
  642THF    H1011343   1.432   1.683   4.695 -2.7478 -0.8601 -0.4832
  642THF    H1111344   1.466   1.658   4.860 -1.5744  1.7744 -0.2841
  642THF    H1211345   1.355   1.841   4.910  1.5244  1.7243  0.8918
  642THF    H1311346   1.309   1.870   4.735 -3.8485 -1.7524  3.3174
  643THF     O111347   3.470   0.087   3.413 -0.4593  0.2940 -0.2523
  643THF     C211348   3.549   0.208   3.386 -0.1368  0.5547  0.3599
  643THF     C311349   3.553  -0.000   3.491  0.4305 -0.5920 -0.6035
  643THF     H411350   3.483   0.295   3.390 -1.7872  1.1993  0.3920
  643THF     H511351   3.600   0.202   3.285  2.7459 -0.3663 -0.4939
  643THF     H611352   3.490  -0.045   3.566 -1.6266  1.0872 -2.3622
  643THF     H711353   3.591  -0.073   3.424  0.1357  1.5466  2.9108
  643THF     C811354   3.664   0.085   3.553 -0.3489  0.0609  0.5883
  643THF     C911355   3.640   0.224   3.503  0.7424  0.5026 -0.4452
  643THF    H1011356   3.757   0.050   3.521 -0.5996 -0.7737 -0.0720
  643THF    H1111357   3.667   0.074   3.661 -3.5826 -1.7849 -0.2464
  643THF    H1211358   3.602   0.284   3.578 -0.1821  0.0424 -1.0842
  643THF    H1311359   3.728   0.277   3.463 -1.5792  1.7703 -0.3810
  644THF     O111360   0.895   3.231   2.376 -0.6662  0.0577 -0.0706
  644THF     C211361   0.936   3.105   2.315 -0.2020  0.0094  0.2328
  644THF     C311362   0.997   3.276   2.463 -0.0695  0.3299  0.2886
  644THF     H411363   0.907   3.123   2.202  0.4075  0.7561 -3.2025
  644THF     H511364   0.880   3.020   2.350 -0.4037  0.0555 -0.4567
  644THF     H611365   1.039   3.370   2.428  0.4055  0.2578 -0.8441
  644THF     H711366   0.953   3.287   2.569 -3.1777  2.2865  0.3443
  644THF     C811367   1.109   3.169   2.473 -0.9771  0.8196 -0.8325
  644THF     C911368   1.083   3.088   2.348 -0.1401  0.0772 -0.4862
  644THF    H1011369   1.088   3.107   2.564  0.1062 -2.8245 -1.0981
  644THF    H1111370   1.213   3.209   2.474  2.3966 -0.1062  1.1128
  644THF    H1211371   1.132   3.145   2.263  3.2286  0.2751 -1.2879
  644THF    H1311372   1.123   2.987   2.347 -0.0975 -0.4345 -1.8961
  645THF     O111373   1.912   5.081   1.464 -0.3851  0.8163 -0.7763
  645THF     C211374   1.804   5.154   1.402 -0.2141  0.2495  0.1747
  645THF     C311375   2.017   5.070   1.368 -0.3833  0.1008 -0.4493
  645THF     H411376   1.833   5.258   1.400 -0.2147  0.5601 -0.1673
  645THF     H511377   1.712   5.147   1.455 -0.3942  0.2638 -0.9918
  645THF     H611378   2.079   5.162   1.385  3.7109 -0.2456  0.1333
  645THF     H711379   2.077   4.972   1.385  0.4497 -1.0426  1.6993
  645THF     C811380   1.943   5.058   1.237 -0.1174 -0.2691  0.6074
  645THF     C911381   1.796   5.088   1.268  0.0381  0.3126 -0.2192
  645THF    H1011382   1.956   4.952   1.191  2.4122  1.1764 -1.3197
  645THF    H1111383   1.970   5.133   1.166 -0.4367  0.4771 -3.5179
  645THF    H1211384   1.754   5.158   1.200  0.0536  0.3281  2.4397
  645THF    H1311385   1.737   4.994   1.269 -1.1502 -0.4361 -0.3651
  646THF     O111386   2.122   4.712   4.737 -0.3465 -0.2840 -0.1131
  646THF     C211387   2.133   4.812   4.833 -0.2963 -0.6806 -0.5454
  646THF     C311388   2.007   4.740   4.660  1.2652  0.1106  0.5603
  646THF     H411389   2.241   4.815   4.867  0.4146 -1.2196  0.5497
  646THF     H511390   2.085   4.797   4.925  1.0864  0.8807  0.2825
  646THF     H611391   2.036   4.736   4.555  0.1022 -0.6849 -2.3221
  646THF     H711392   1.952   4.646   4.669  3.0384 -2.8037 -4.3169
  646THF     C811393   1.944   4.871   4.708 -0.1789  0.1169 -0.2594
  646THF     C911394   2.068   4.936   4.769 -0.9650  0.8565 -0.1705
  646THF    H1011395   1.876   4.836   4.784 -0.4810  0.5734  0.7071
  646THF    H1111396   1.894   4.921   4.624 -0.1174  0.7381 -0.1381
  646THF    H1211397   2.134   4.978   4.690 -2.0231  0.5002  0.7381
  646THF    H1311398   2.033   5.007   4.837  2.4415 -1.0947  0.4959
  647THF     O111399   0.853   2.251   4.149 -0.0396 -0.3573 -0.3097
  647THF     C211400   0.831   2.114   4.157 -1.2701  0.1214 -0.8968
  647THF     C311401   0.987   2.268   4.106  0.0168 -0.4593  0.2679
  647THF     H411402   0.719   2.096   4.158  0.8135  0.7686 -2.2394
  647THF     H511403   0.884   2.072   4.239  1.4520  1.1876  1.7663
  647THF     H611404   0.997   2.361   4.059 -0.4353 -0.6733 -0.2509
  647THF     H711405   1.058   2.271   4.191  0.1144  2.5839  0.3394
  647THF     C811406   1.008   2.165   4.004  0.3442 -0.4026  0.5147
  647THF     C911407   0.899   2.065   4.033 -0.4130 -0.0829 -1.5639
  647THF    H1011408   1.108   2.121   4.009  0.5235  1.9713 -1.2228
  647THF    H1111409   0.986   2.202   3.906  1.5385  2.0795  0.6605
  647THF    H1211410   0.823   2.071   3.962  0.1742 -1.7137  1.9790
  647THF    H1311411   0.939   1.968   4.033 -0.1156 -0.1068 -0.3794
  648THF     O111412   5.466   0.060   2.941 -0.6831  0.2493 -0.0407
  648THF     C211413   5.598   0.047   2.902  0.6498 -0.2973  0.7336
  648THF     C311414   5.382   0.067   2.824  0.3753 -0.2073  0.3492
  648THF     H411415   5.669   0.007   2.974  1.2805  2.1975 -2.8720
  648THF     H511416   5.648   0.148   2.875  0.0620  1.1788 -2.4069
  648THF     H611417   5.276   0.048   2.846 -3.4545 -0.6056  1.2812
  648THF     H711418   5.386   0.166   2.775 -0.3945  1.4168 -0.1295
  648THF     C811419   5.449  -0.022   2.724 -0.5288 -0.0118 -0.4762
  648THF     C911420   5.579  -0.046   2.789  0.0931  0.6965  0.2953
  648THF    H1011421   5.466   0.015   2.623 -0.3063  1.1419  2.3468
  648THF    H1111422   5.402  -0.116   2.717  0.4352 -2.9237  0.8154
  648THF    H1211423   5.582  -0.150   2.823  1.7789  1.3795 -1.1533
  648THF    H1311424   5.660  -0.052   2.721 -0.6693 -0.7471 -2.1688
  649THF     O111425   0.883   0.718   2.983  0.7597  0.5257  0.2543
  649THF     C211426   0.821   0.829   2.933  0.5225 -0.2096 -0.0509
  649THF     C311427   0.790   0.610   2.991 -0.5450 -0.7257 -0.2360
  649THF     H411428   0.808   0.824   2.822  0.8987  2.8621 -1.4655
  649THF     H511429   0.862   0.924   2.964 -2.8324  2.0997  1.8558
  649THF     H611430   0.815   0.555   2.895 -1.1656  0.7125 -0.4844
  649THF     H711431   0.822   0.544   3.076 -1.4247  1.3488  1.7437
  649THF     C811432   0.656   0.673   2.995  0.2920  0.6095  0.1059
  649THF     C911433   0.687   0.820   3.001  0.0788 -0.2411 -0.7384
  649THF    H1011434   0.605   0.643   3.086  1.7726  1.0263 -1.5245
  649THF    H1111435   0.605   0.655   2.899 -1.2348 -0.8385 -4.0818
  649THF    H1211436   0.613   0.887   2.957  1.7313  0.7577  1.0931
  649THF    H1311437   0.693   0.835   3.109 -0.8455  3.3913  0.8487
  650THF     O111438   5.232   1.757   1.765 -0.1101 -0.5107 -0.0478
  650THF     C211439   5.132   1.792   1.663  0.3527 -0.0132 -0.3345
  650THF     C311440   5.351   1.832   1.740 -0.3213 -0.2989  0.7252
  650THF     H411441   5.052   1.852   1.714 -0.8331 -0.5735  0.7607
  650THF     H511442   5.085   1.701   1.621 -0.7592 -3.8118 -1.3465
  650THF     H611443   5.403   1.855   1.833  2.3861  0.0716  2.1196
  650THF     H711444   5.419   1.759   1.694  1.7125  0.1730  1.2312
  650THF     C811445   5.316   1.949   1.655 -0.3510 -0.3374 -0.0618
  650THF     C911446   5.204   1.878   1.574  0.3977  0.4522  0.0144
  650THF    H1011447   5.402   1.973   1.593  0.0068 -2.8583  0.0131
  650THF    H1111448   5.285   2.044   1.712  0.3665  0.5500 -2.5390
  650THF    H1211449   5.141   1.947   1.518  0.2381 -2.4959  0.5528
  650THF    H1311450   5.261   1.821   1.493  0.7607 -1.0353  0.0843
  651THF     O111451   2.059   0.607   2.217 -0.6118  0.3637  1.0180
  651THF     C211452   2.162   0.510   2.246 -0.1366  0.5147 -0.6536
  651THF     C311453   2.100   0.696   2.115 -0.3357 -0.1435 -0.6956
  651THF     H411454   2.141   0.410   2.205  1.2205  0.4043 -4.0452
  651THF     H511455   2.167   0.508   2.353  1.0636  0.5797 -0.9237
  651THF     H611456   2.027   0.726   2.037 -2.4759 -1.6355  1.1809
  651THF     H711457   2.109   0.794   2.163 -0.0406  0.0725 -1.1436
  651THF     C811458   2.243   0.647   2.070 -0.2431  0.0321  0.2748
  651THF     C911459   2.293   0.560   2.184  0.5524  0.2980 -0.5278
  651THF    H1011460   2.315   0.724   2.060  1.5142 -0.6055  1.4419
  651THF    H1111461   2.228   0.590   1.978 -2.6235 -0.0346  1.3184
  651THF    H1211462   2.357   0.477   2.150 -0.0862 -2.2509  1.5360
  651THF    H1311463   2.350   0.623   2.256  0.6921  0.8161 -1.4849
  652THF     O111464   1.767   3.764   1.542  0.3859  0.1244 -0.2296
  652THF     C211465   1.788   3.893   1.591  0.1301 -0.4315  0.2566
  652THF     C311466   1.892   3.698   1.555  0.2198 -0.7298 -0.5725
  652THF     H411467   1.697   3.946   1.629 -2.4890  3.8870  0.0323
  652THF     H511468   1.848   3.959   1.524  2.3542  0.1434 -1.4637
  652THF     H611469   1.878   3.588   1.552  1.2069  0.2287  0.6667
  652THF     H711470   1.966   3.729   1.477 -0.3205  0.1275  1.3984
  652THF     C811471   1.943   3.738   1.697 -0.3161 -0.2724  0.4680
  652THF     C911472   1.873   3.874   1.716  0.4205 -0.1406  0.0082
  652THF    H1011473   2.050   3.766   1.694  1.2066  1.1343 -2.5926
  652THF    H1111474   1.915   3.660   1.771  0.9207  0.3675 -2.3754
  652THF    H1211475   1.809   3.867   1.801  2.1575 -2.8395 -0.6899
  652THF    H1311476   1.937   3.967   1.727 -1.3726 -0.9091  1.9102
  653THF     O111477   1.604   0.476   2.982  0.2214 -0.0977 -0.0402
  653THF     C211478   1.581   0.610   2.932  0.0304 -0.4005  0.3778
  653THF     C311479   1.468   0.426   3.007 -0.7111  0.4810  0.4322
  653THF     H411480   1.529   0.610   2.835 -0.7610  0.9981  1.4675
  653THF     H511481   1.670   0.670   2.921 -2.3415  3.5309  1.0305
  653THF     H611482   1.409   0.411   2.916  0.6962  2.2241 -3.6718
  653THF     H711483   1.459   0.329   3.063 -4.9070 -1.4224  0.9936
  653THF     C811484   1.416   0.538   3.093 -0.7413 -0.3638  0.3103
  653THF     C911485   1.480   0.665   3.036 -0.2631 -0.7485 -0.4558
  653THF    H1011486   1.462   0.526   3.188 -1.6324 -2.1722 -2.0964
  653THF    H1111487   1.308   0.544   3.103  0.4454 -3.2104  1.0922
  653THF    H1211488   1.404   0.728   2.986  0.7766 -0.5569  1.8381
  653THF    H1311489   1.529   0.713   3.123 -1.6568 -1.6955  1.2820
  654THF     O111490   3.548   3.771   4.698  0.0540  0.3328  0.8361
  654THF     C211491   3.434   3.852   4.733  0.0833 -0.2261  0.1863
  654THF     C311492   3.510   3.635   4.710  0.1608 -0.0425 -0.7365
  654THF     H411493   3.441   3.939   4.676  1.3631 -0.5669  0.0251
  654THF     H511494   3.449   3.872   4.846  1.6781 -3.3984  0.5057
  654THF     H611495   3.570   3.576   4.639  0.8486 -0.7327  0.2090
  654THF     H711496   3.532   3.604   4.815 -0.3725 -3.3182  3.2733
  654THF     C811497   3.359   3.633   4.685 -0.0953 -0.2203  0.3760
  654THF     C911498   3.306   3.770   4.713  0.6791  0.5051  0.2264
  654THF    H1011499   3.306   3.561   4.748 -1.1018 -0.5111  0.8169
  654THF    H1111500   3.334   3.617   4.578 -0.4324  0.2485 -0.0958
  654THF    H1211501   3.242   3.798   4.632 -1.1974  1.3335 -1.4509
  654THF    H1311502   3.239   3.773   4.803 -0.9447 -1.8294  1.4619
  655THF     O111503   3.497   1.467   2.116 -0.2239 -0.1282  0.0500
  655THF     C211504   3.556   1.339   2.112 -0.9862  0.2716 -0.2644
  655THF     C311505   3.581   1.555   2.189  0.0808  0.0684  0.0224
  655THF     H411506   3.640   1.334   2.038 -0.3497  1.9317 -2.1309
  655THF     H511507   3.486   1.258   2.091  1.0899  0.2457 -2.8020
  655THF     H611508   3.674   1.586   2.135  0.5647  0.9909 -1.3624
  655THF     H711509   3.533   1.647   2.219 -1.3349 -1.5866 -0.5395
  655THF     C811510   3.631   1.473   2.306 -0.2498 -0.6968  0.0108
  655THF     C911511   3.636   1.330   2.250  0.1594  0.2162  0.3886
  655THF    H1011512   3.561   1.463   2.386 -0.0269  1.5444 -0.4095
  655THF    H1111513   3.723   1.508   2.359  0.4876  1.0157 -1.0211
  655THF    H1211514   3.738   1.293   2.245 -1.5651 -2.2210  0.7907
  655THF    H1311515   3.591   1.259   2.322  0.5334 -0.6783  1.2451
  656THF     O111516   2.109   4.749   1.091 -0.1206 -0.0678  0.1554
  656THF     C211517   2.081   4.774   0.953  0.2541  0.2171 -0.2649
  656THF     C311518   2.036   4.633   1.144 -0.9631  0.0786 -0.1991
  656THF     H411519   2.168   4.823   0.900 -3.3604 -0.3824  0.6725
  656THF     H511520   1.997   4.835   0.953  1.8797 -2.2183 -1.4218
  656THF     H611521   2.090   4.572   1.210  1.3406  1.9677  2.1942
  656THF     H711522   1.958   4.685   1.194 -0.8775 -2.3427  2.0659
  656THF     C811523   1.978   4.560   1.027 -0.6300  0.7843  0.1168
  656THF     C911524   2.045   4.630   0.905 -0.0774  0.0773 -0.7150
  656THF    H1011525   1.868   4.587   1.027  0.3843 -2.2499  0.0226
  656THF    H1111526   2.000   4.448   1.035  0.1286 -0.3935  0.2899
  656THF    H1211527   2.143   4.579   0.880 -0.5353 -3.0316  0.2048
  656THF    H1311528   1.972   4.624   0.820  1.1450  0.5143  0.6262
  657THF     O111529   2.336   3.032   3.523 -0.6970 -0.5588  0.2678
  657THF     C211530   2.452   3.053   3.597 -0.8433  0.2028  1.1436
  657THF     C311531   2.242   3.135   3.553  0.3649 -0.6099 -0.1444
  657THF     H411532   2.520   3.115   3.537  2.3921  2.3325  0.3823
  657THF     H511533   2.494   2.957   3.631 -0.9862  1.1525  0.7988
  657THF     H611534   2.269   3.225   3.488  1.6462 -0.0093 -1.4387
  657THF     H711535   2.137   3.106   3.528 -2.0749  0.1644 -1.9844
  657THF     C811536   2.259   3.149   3.706  0.5105 -0.4713  0.2245
  657THF     C911537   2.407   3.132   3.723 -0.8361 -0.0126 -0.2548
  657THF    H1011538   2.202   3.064   3.752  0.1690  0.2458  1.5863
  657THF    H1111539   2.225   3.239   3.748 -0.6375 -0.7820 -0.9839
  657THF    H1211540   2.455   3.230   3.723 -1.5666 -0.2899 -0.9899
  657THF    H1311541   2.436   3.072   3.809  4.8190  0.9144  2.9573
  658THF     O111542   4.469   4.356   1.615 -0.4631 -0.3912  0.4070
  658THF     C211543   4.477   4.368   1.473 -0.1174  0.5612 -0.1718
  658THF     C311544   4.493   4.220   1.644 -0.5961  0.4829 -0.1362
  658THF     H411545   4.486   4.479   1.462  1.1924  2.7514  1.7084
  658THF     H511546   4.384   4.338   1.427  1.0259  0.5202  1.4590
  658THF     H611547   4.519   4.200   1.752  3.4862 -0.3046 -0.2048
  658THF     H711548   4.395   4.166   1.631 -2.6141 -0.0769 -1.5935
  658THF     C811549   4.600   4.172   1.544 -0.1034 -0.2532  0.0913
  658THF     C911550   4.594   4.280   1.438 -0.3391 -0.0211 -0.2971
  658THF    H1011551   4.573   4.071   1.508 -0.9079  0.2274 -0.1676
  658THF    H1111552   4.699   4.168   1.592  0.0764 -1.6975 -0.5210
  658THF    H1211553   4.691   4.319   1.443 -1.2032  1.2233  2.8903
  658THF    H1311554   4.585   4.238   1.340 -2.3148  2.2942 -2.8782
  659THF     O111555   3.377   3.203   2.128  0.7713 -0.6271 -0.7238
  659THF     C211556   3.323   3.149   2.002 -0.3553 -0.3756  0.2980
  659THF     C311557   3.490   3.125   2.165 -0.2791 -0.3596  0.2302
  659THF     H411558   3.254   3.220   1.963  0.4714 -0.4654 -1.6141
  659THF     H511559   3.260   3.058   2.012  0.4766  3.3744 -1.7654
  659THF     H611560   3.554   3.160   2.242  1.8018 -2.6907 -0.9334
  659THF     H711561   3.477   3.024   2.189 -1.1745  2.3335 -2.3695
  659THF     C811562   3.565   3.144   2.029  0.9542  0.3173  0.0513
  659THF     C911563   3.452   3.139   1.918 -0.8097  1.1194  0.0942
  659THF    H1011564   3.627   3.060   2.010  3.0388  1.9642  0.0578
  659THF    H1111565   3.624   3.241   2.026  0.0653 -0.2408  1.3776
  659THF    H1211566   3.462   3.224   1.851  0.1019 -0.6057 -0.6269
  659THF    H1311567   3.450   3.050   1.852 -1.7840 -1.4372  0.1478
  660THF     O111568   5.141   1.083   5.176 -0.0240  0.1152  0.7536
  660THF     C211569   5.105   1.220   5.184 -0.8907  0.6571 -0.1582
  660THF     C311570   5.209   1.051   5.297  0.1956 -0.2095  0.5779
  660THF     H411571   5.012   1.237   5.233  1.9676  0.0096 -0.6313
  660THF     H511572   5.101   1.261   5.079  1.0624 -0.9181 -1.2826
  660THF     H611573   5.124   1.028   5.362 -0.7877 -1.6690 -1.2210
  660THF     H711574   5.257   0.953   5.280  0.5293 -2.3107  2.0930
  660THF     C811575   5.287   1.174   5.341 -0.5618 -0.5423 -0.6107
  660THF     C911576   5.216   1.288   5.268 -0.0317  1.3448 -0.0765
  660THF    H1011577   5.388   1.166   5.304 -0.0261  1.8745 -1.7502
  660THF    H1111578   5.281   1.198   5.450  0.8597 -1.2829 -0.5659
  660THF    H1211579   5.172   1.367   5.329  0.7709  2.5169 -0.7504
  660THF    H1311580   5.284   1.334   5.201  1.5202  0.7654 -1.1439
  661THF     O111581   2.260   2.720   0.856 -0.3912  0.2055  0.5777
  661THF     C211582   2.219   2.794   0.740 -0.0436  0.5129 -0.0485
  661THF     C311583   2.316   2.593   0.822 -0.2979  0.1877  0.4923
  661THF     H411584   2.291   2.870   0.721 -0.8040  3.0089 -1.9550
  661THF     H511585   2.120   2.832   0.755  0.1504 -2.7995  2.8628
  661THF     H611586   2.393   2.561   0.899 -0.6123 -0.9123  2.6761
  661THF     H711587   2.228   2.521   0.837  1.0642 -0.6275 -0.1108
  661THF     C811588   2.355   2.618   0.677 -0.2805  0.0656  0.3302
  661THF     C911589   2.236   2.693   0.624  1.0472 -0.1545  1.0063
  661THF    H1011590   2.370   2.524   0.621 -0.9361 -2.2924  0.0041
  661THF    H1111591   2.447   2.675   0.667  0.1911 -0.6174  0.5839
  661THF    H1211592   2.247   2.745   0.528 -1.4024  2.6968  2.2053
  661THF    H1311593   2.153   2.628   0.627  1.0280 -0.4482  0.1437
  662THF     O111594   2.948   4.149   4.522 -0.3301 -0.1442  0.2409
  662THF     C211595   2.890   4.041   4.458 -0.3692  0.2350  0.1991
  662THF     C311596   3.073   4.176   4.457 -0.3480  0.0582 -1.1865
  662THF     H411597   2.844   4.071   4.364 -0.3452  2.0674 -0.8785
  662THF     H511598   2.806   4.004   4.528 -0.9276 -1.0345 -0.9260
  662THF     H611599   3.067   4.227   4.360  2.0434  1.5146  0.5071
  662THF     H711600   3.134   4.238   4.519 -2.3869  0.1008  0.3520
  662THF     C811601   3.131   4.041   4.437  0.4650  0.2064 -0.3314
  662THF     C911602   3.010   3.949   4.424  0.2938  0.2440 -0.3981
  662THF    H1011603   3.193   4.017   4.529  2.3977 -0.1169  2.0624
  662THF    H1111604   3.196   4.038   4.354 -2.1463 -1.8261  2.1912
  662THF    H1211605   3.004   3.902   4.324 -2.4252  0.6486  1.5295
  662THF    H1311606   3.016   3.860   4.489 -0.3639 -0.9812  1.0035
  663THF     O111607   4.213   3.118   1.189  0.4583  0.6266 -0.1139
  663THF     C211608   4.223   3.116   1.048 -0.0698  0.2539 -0.1736
  663THF     C311609   4.093   3.193   1.218  0.2444  0.0895  0.0131
  663THF     H411610   4.296   3.047   1.015 -1.6933  1.5144  1.5217
  663THF     H511611   4.255   3.216   1.008  1.2340 -0.1060 -0.1745
  663THF     H611612   4.063   3.185   1.323  1.5407  1.1904 -0.8192
  663THF     H711613   4.116   3.296   1.201 -2.3097 -0.6381 -1.1083
  663THF     C811614   3.994   3.136   1.109  0.1107 -0.0630  0.1434
  663THF     C911615   4.084   3.087   0.998  0.0593  0.7220 -0.1016
  663THF    H1011616   3.914   3.201   1.078 -0.2400 -0.7261 -0.0332
  663THF    H1111617   3.938   3.047   1.143 -2.5254  2.0570  0.0897
  663THF    H1211618   4.068   2.979   0.984  0.5148 -1.9194 -0.2093
  663THF    H1311619   4.060   3.141   0.911  0.3957 -1.1544  1.6192
  664THF     O111620   4.157   2.417   2.407 -0.1932  0.0880 -0.4513
  664THF     C211621   4.290   2.456   2.439 -0.0468  0.1383  0.4032
  664THF     C311622   4.149   2.344   2.283  0.3873  0.2458  0.4410
  664THF     H411623   4.330   2.384   2.506  1.1948  2.0744 -0.2485
  664THF     H511624   4.301   2.556   2.485 -1.3453  1.6341  0.4917
  664THF     H611625   4.103   2.250   2.307  2.7784 -0.1088  2.4589
  664THF     H711626   4.097   2.404   2.207  0.8664 -1.8981 -1.5780
  664THF     C811627   4.295   2.329   2.238 -0.7999  0.2510 -0.2101
  664THF     C911628   4.361   2.442   2.303  0.0777 -0.1370  0.3117
  664THF    H1011629   4.292   2.321   2.126 -3.3341  1.0329 -0.4013
  664THF    H1111630   4.342   2.234   2.268 -0.6311 -0.3449 -2.9789
  664THF    H1211631   4.461   2.420   2.322 -1.8232 -0.0502 -3.3528
  664THF    H1311632   4.347   2.532   2.245 -0.1973 -1.4195 -3.3577
  665THF     O111633   1.471   3.776   4.060  0.1365  0.2754  0.4493
  665THF     C211634   1.533   3.651   4.041 -0.5719  0.2294  0.0501
  665THF     C311635   1.564   3.875   4.102  0.1177 -0.9222  0.2018
  665THF     H411636   1.596   3.661   3.951 -1.5719 -0.9435  1.6059
  665THF     H511637   1.469   3.565   4.022 -0.9101 -0.8476  0.0521
  665THF     H611638   1.616   3.911   4.020  0.6307  0.3978  1.9497
  665THF     H711639   1.527   3.963   4.159 -2.7473  0.4851  1.1660
  665THF     C811640   1.654   3.788   4.190 -0.7310  0.5754 -0.2886
  665THF     C911641   1.613   3.641   4.170 -0.4444  0.9315  1.2151
  665THF    H1011642   1.633   3.819   4.291  3.9239  1.1741 -0.2790
  665THF    H1111643   1.759   3.798   4.179  1.2677  0.1010  1.9636
  665THF    H1211644   1.697   3.572   4.177  2.0778 -0.1225  0.2673
  665THF    H1311645   1.550   3.613   4.257  0.0373 -2.0472  1.2963
  666THF     O111646   3.166   0.995   3.141 -0.1614 -0.4038  0.2591
  666THF     C211647   3.163   1.049   3.003  0.0303 -0.2063 -0.4775
  666THF     C311648   3.252   0.883   3.132  0.5007 -0.2254  0.1422
  666THF     H411649   3.173   1.161   2.994  0.7279  0.2057 -1.8007
  666THF     H511650   3.064   1.021   2.962  0.0730 -1.5598  0.6840
  666THF     H611651   3.281   0.836   3.224 -0.4835  0.6579  0.7801
  666THF     H711652   3.182   0.808   3.097  1.8776  1.9673 -0.5827
  666THF     C811653   3.361   0.913   3.031 -0.3000 -0.2877 -0.0118
  666THF     C911654   3.274   0.978   2.923  0.3587  0.3580 -0.2107
  666THF    H1011655   3.415   0.824   2.992  2.2650  0.0668  3.4179
  666THF    H1111656   3.437   0.971   3.085  3.3207  1.2237  2.9564
  666THF    H1211657   3.330   1.046   2.860 -3.1303 -0.2717  2.3737
  666THF    H1311658   3.236   0.903   2.853 -0.1518  1.0534 -0.2335
  667THF     O111659   1.036   4.610   3.009 -0.1601  0.0049  0.1133
  667THF     C211660   1.162   4.566   2.958  0.0199  0.3645  0.4801
  667THF     C311661   1.065   4.711   3.098  0.2621 -0.3223  0.7220
  667THF     H411662   1.205   4.632   2.886 -0.2046  1.0439  1.2769
  667THF     H511663   1.158   4.461   2.921  0.6830  1.2785  1.8470
  667THF     H611664   1.103   4.793   3.038  2.2961 -1.4971  1.8570
  667THF     H711665   0.972   4.730   3.158 -3.2639  0.3612  0.7508
  667THF     C811666   1.181   4.653   3.177  0.2924 -0.0901 -0.1100
  667THF     C911667   1.261   4.564   3.077  0.4034  0.5750 -0.2258
  667THF    H1011668   1.146   4.582   3.245 -0.1005  0.1418 -2.2862
  667THF    H1111669   1.243   4.724   3.229  0.8469  2.9620 -0.9373
  667THF    H1211670   1.356   4.612   3.051  0.1610  0.9799  0.6248
  667THF    H1311671   1.287   4.460   3.114  2.3308 -1.2124  1.0097
  668THF     O111672   2.111   2.132   4.426 -0.4329  0.0299 -0.0173
  668THF     C211673   2.036   2.016   4.409  0.7457 -0.0402 -0.4608
  668THF     C311674   2.243   2.096   4.438  0.2623  0.3109  0.1434
  668THF     H411675   2.039   1.992   4.302  3.1186  2.0532  0.9100
  668THF     H511676   1.930   2.039   4.435 -3.2844  0.1477  0.4888
  668THF     H611677   2.277   2.056   4.342  0.0466  0.6610  0.7796
  668THF     H711678   2.305   2.180   4.469 -0.3718  0.0804  0.2044
  668THF     C811679   2.242   1.976   4.530  0.3837  1.0933 -0.3656
  668THF     C911680   2.101   1.912   4.498  0.5241 -0.3181  0.1960
  668THF    H1011681   2.242   2.006   4.632  1.7165 -2.9623  1.1264
  668THF    H1111682   2.324   1.908   4.503 -0.3224 -2.4047 -2.7989
  668THF    H1211683   2.115   1.819   4.454 -2.8641 -2.5018 -1.4430
  668THF    H1311684   2.047   1.914   4.597  0.3428 -2.6430  2.4613
  669THF     O111685   3.246   2.069   4.319  0.3460  0.2238 -0.3988
  669THF     C211686   3.305   2.155   4.416  0.0908 -0.5014 -0.0077
  669THF     C311687   3.107   2.099   4.321  0.1568  0.3085  0.4472
  669THF     H411688   3.404   2.194   4.406 -1.5750  0.4616  0.7641
  669THF     H511689   3.296   2.109   4.513 -0.3107  1.6437 -1.4409
  669THF     H611690   3.049   2.059   4.231  0.5299 -0.9394 -0.1498
  669THF     H711691   3.073   2.053   4.410  0.8337  1.9461 -1.4816
  669THF     C811692   3.098   2.256   4.334 -0.3941 -0.1121 -0.4040
  669THF     C911693   3.230   2.285   4.401  0.2966  0.2441 -0.3756
  669THF    H1011694   3.008   2.285   4.394  0.8298 -2.0665 -0.8893
  669THF    H1111695   3.093   2.285   4.230 -2.8299  2.5207  0.2895
  669THF    H1211696   3.286   2.354   4.335 -0.3733 -0.8867 -1.3869
  669THF    H1311697   3.216   2.333   4.503  0.4652  3.5489 -0.2593
  670THF     O111698   2.164   2.196   5.268 -0.0284  0.0638 -0.5190
  670THF     C211699   2.061   2.227   5.182  0.4822 -0.2103 -0.3041
  670THF     C311700   2.208   2.068   5.220 -0.1954 -0.4081 -0.0761
  670THF     H411701   2.025   2.327   5.201 -2.2245  0.7349  2.3018
  670THF     H511702   1.974   2.173   5.204  1.0681  1.2854  1.5622
  670THF     H611703   2.301   2.041   5.274  1.1913 -1.0182 -0.3370
  670THF     H711704   2.130   2.002   5.246  2.4873 -0.6347  0.1743
  670THF     C811705   2.219   2.076   5.072 -0.6751  0.0333 -0.4090
  670THF     C911706   2.115   2.187   5.049  0.0350 -0.1924  0.0514
  670THF    H1011707   2.184   1.991   5.024 -1.9461  1.1674  1.9826
  670THF    H1111708   2.316   2.102   5.050  1.3254  0.2864  1.4129
  670THF    H1211709   2.151   2.275   5.003 -2.3644 -1.7652  0.0954
  670THF    H1311710   2.031   2.158   4.986 -1.3165 -2.7374 -0.9134
  671THF     O111711   0.054   4.398   4.853  0.2564  0.3195  0.6048
  671THF     C211712   0.070   4.493   4.753  0.4857  0.7978 -0.9161
  671THF     C311713  -0.061   4.323   4.827 -0.2186 -1.2410  0.1716
  671THF     H411714   0.109   4.458   4.655 -2.1186  1.4312  0.1538
  671THF     H511715   0.131   4.566   4.790  1.1852 -1.2067 -1.3634
  671THF     H611716  -0.044   4.251   4.749 -1.5721 -2.2765  1.4048
  671THF     H711717  -0.083   4.273   4.929 -0.7195 -0.2577  1.9942
  671THF     C811718  -0.160   4.432   4.794  0.0546  0.0469  0.1702
  671THF     C911719  -0.077   4.544   4.727  0.0253  0.0274  0.1544
  671THF    H1011720  -0.215   4.476   4.877 -2.1448 -0.5002 -0.0919
  671THF    H1111721  -0.238   4.391   4.734 -0.6725  1.5110 -2.5526
  671THF    H1211722  -0.105   4.552   4.619 -1.0635  1.8631 -1.8797
  671THF    H1311723  -0.098   4.644   4.766 -0.0842 -1.1503  1.6957
  672THF     O111724   4.249   4.456   3.089 -0.3787 -0.0703  0.7015
  672THF     C211725   4.259   4.597   3.068 -0.2546 -0.4895  0.0012
  672THF     C311726   4.161   4.437   3.205  0.1198  0.5870  0.3280
  672THF     H411727   4.257   4.633   2.967 -0.8421  0.1483  1.2502
  672THF     H511728   4.354   4.636   3.107 -2.2990  4.0055  2.2605
  672THF     H611729   4.067   4.405   3.174  0.2193  4.7662  2.0876
  672THF     H711730   4.210   4.385   3.280  3.2011 -0.1332  0.7997
  672THF     C811731   4.129   4.575   3.265 -0.8490  0.2955 -0.0750
  672THF     C911732   4.160   4.674   3.157 -0.6846  0.8655 -0.4929
  672THF    H1011733   4.184   4.589   3.355  1.7154 -0.3267 -1.2507
  672THF    H1111734   4.021   4.571   3.288 -0.9337  1.7353 -2.1274
  672THF    H1211735   4.070   4.703   3.097  1.1682 -1.8170 -2.8699
  672THF    H1311736   4.200   4.761   3.207  0.7892 -1.2245 -2.0198
  673THF     O111737   2.608   2.784   2.258 -0.3334 -0.6489 -0.1027
  673THF     C211738   2.530   2.756   2.371 -0.2008  0.1133 -0.1620
  673THF     C311739   2.606   2.664   2.174 -0.3744 -0.2013  0.3162
  673THF     H411740   2.494   2.857   2.412  0.9212  1.7365  3.0334
  673THF     H511741   2.582   2.712   2.454  2.0970 -0.6113 -1.5068
  673THF     H611742   2.644   2.692   2.077  0.4081 -2.4459 -0.1718
  673THF     H711743   2.671   2.597   2.227 -0.6490 -3.0847  2.2841
  673THF     C811744   2.467   2.613   2.181 -0.1605  0.1982 -0.0301
  673THF     C911745   2.412   2.669   2.318  0.1563  0.1058  0.3263
  673THF    H1011746   2.484   2.503   2.186  0.3547  1.3476  2.1905
  673THF    H1111747   2.402   2.645   2.097 -0.9320 -0.0712 -0.7606
  673THF    H1211748   2.328   2.745   2.287  0.3774  1.3193  2.5357
  673THF    H1311749   2.374   2.584   2.383  2.1239 -2.3701 -0.3197
  674THF     O111750   4.496   1.406   4.289  0.1989 -0.0488 -0.1243
  674THF     C211751   4.611   1.330   4.267 -0.2844  0.7249  0.6604
  674THF     C311752   4.491   1.514   4.209  0.1934  0.5191  0.0296
  674THF     H411753   4.593   1.282   4.170  1.9891 -2.5174 -0.1739
  674THF     H511754   4.628   1.263   4.351  1.0892 -0.1274  1.6076
  674THF     H611755   4.454   1.491   4.109  0.7242  1.8842  1.2207
  674THF     H711756   4.435   1.601   4.234 -1.6116 -1.1574 -2.0389
  674THF     C811757   4.635   1.564   4.221  0.1720  0.3961 -0.3283
  674THF     C911758   4.718   1.442   4.257 -0.1761 -0.0173 -0.4985
  674THF    H1011759   4.640   1.632   4.300  2.5014 -0.2092 -3.4451
  674THF    H1111760   4.663   1.619   4.130  1.5330 -2.8646 -1.5082
  674THF    H1211761   4.796   1.429   4.178 -1.3188  1.2441 -1.1687
  674THF    H1311762   4.778   1.462   4.348 -1.0947 -0.5948  1.0851
  675THF     O111763   3.680   1.419   4.593  0.3826 -0.0829  0.2653
  675THF     C211764   3.728   1.536   4.535 -0.4698 -0.8527  0.0997
  675THF     C311765   3.744   1.385   4.706  0.5528 -0.4972  0.1694
  675THF     H411766   3.691   1.619   4.596 -1.4422  0.6197 -1.4861
  675THF     H511767   3.704   1.542   4.429  1.4846 -0.7633  0.1822
  675THF     H611768   3.701   1.400   4.804 -1.7959 -0.0686  0.3754
  675THF     H711769   3.763   1.273   4.707 -2.6851 -1.0675  1.2943
  675THF     C811770   3.883   1.449   4.685  0.9574  0.0645 -0.6774
  675THF     C911771   3.874   1.513   4.552 -0.8722  0.2581  0.1761
  675THF    H1011772   3.962   1.378   4.694  0.9521 -0.6489  0.5089
  675THF    H1111773   3.892   1.529   4.759  1.3784  1.0427  0.3860
  675THF    H1211774   3.932   1.605   4.546  1.2688  0.2869  1.1284
  675THF    H1311775   3.900   1.442   4.479 -1.4398 -2.6695 -0.2034
  676THF     O111776   0.031   3.673   0.688 -0.2736  0.2695  0.0044
  676THF     C211777  -0.061   3.628   0.780  0.3284 -0.5024  0.2928
  676THF     C311778   0.157   3.664   0.755 -0.1832 -0.2644  0.4009
  676THF     H411779  -0.070   3.521   0.786  1.1106 -0.2844 -1.2090
  676THF     H511780  -0.158   3.658   0.753  0.8752  0.1636 -0.5969
  676THF     H611781   0.188   3.563   0.751  0.4729  1.2498 -0.2188
  676THF     H711782   0.229   3.725   0.707  2.5084  0.6406  0.9206
  676THF     C811783   0.133   3.716   0.895  0.0474  0.3302 -0.0631
  676THF     C911784  -0.021   3.682   0.914 -0.0784 -0.4960 -1.1959
  676THF    H1011785   0.159   3.824   0.892  1.4267  4.3687 -2.6647
  676THF    H1111786   0.196   3.660   0.969 -0.0835  0.7143 -1.6281
  676THF    H1211787  -0.037   3.601   0.978  2.9342 -0.6660 -1.5617
  676THF    H1311788  -0.084   3.766   0.936  0.2742 -0.5920 -0.5866
  677THF     O111789   3.286   0.297   2.607 -0.1256  0.5764  0.2067
  677THF     C211790   3.385   0.327   2.702 -0.2386  0.5179  0.8540
  677THF     C311791   3.270   0.158   2.603  0.0968 -1.1797 -0.1941
  677THF     H411792   3.348   0.318   2.801  0.9102 -1.7984  0.1730
  677THF     H511793   3.416   0.433   2.695  0.4756 -0.0641 -2.5342
  677THF     H611794   3.200   0.119   2.675 -0.0151  1.3851 -0.4302
  677THF     H711795   3.234   0.128   2.511 -0.9803 -1.1099  1.0600
  677THF     C811796   3.411   0.098   2.626  0.4913  0.1917  0.0130
  677THF     C911797   3.494   0.220   2.667 -0.1758 -0.7897 -0.1106
  677THF    H1011798   3.458   0.049   2.545 -0.8161  0.2224  0.7569
  677THF    H1111799   3.425   0.022   2.704  0.4290 -2.9002  0.4881
  677THF    H1211800   3.562   0.197   2.750  2.1510 -0.3353  0.3485
  677THF    H1311801   3.561   0.252   2.579 -0.3375 -1.1256 -1.2197
  678THF     O111802   0.309   1.968   0.443  0.5130  0.8920 -0.0924
  678THF     C211803   0.389   1.848   0.460  0.4272 -0.1823  0.3604
  678THF     C311804   0.403   2.072   0.461 -0.5508 -0.4794 -0.5214
  678THF     H411805   0.445   1.842   0.358  2.0154 -0.0710  0.5179
  678THF     H511806   0.337   1.756   0.472 -1.4676  2.1212 -1.6468
  678THF     H611807   0.476   2.093   0.382  1.1654 -0.7229 -0.5166
  678THF     H711808   0.343   2.165   0.483  1.6022  0.0680  1.4983
  678THF     C811809   0.474   2.028   0.590  0.4704  0.3655  0.2745
  678THF     C911810   0.483   1.878   0.578 -0.3388 -0.2322 -0.0941
  678THF    H1011811   0.406   2.069   0.667 -0.3438 -0.7141  0.6389
  678THF    H1111812   0.575   2.073   0.612  2.4818 -0.5555  1.7289
  678THF    H1211813   0.585   1.852   0.558 -0.3632 -0.4067 -0.8428
  678THF    H1311814   0.456   1.831   0.669 -1.4203  1.5452 -0.4975
  679THF     O111815   1.388   4.308   3.856  0.5926 -0.0163 -0.5320
  679THF     C211816   1.293   4.218   3.917  0.0786 -0.5901  0.1674
  679THF     C311817   1.412   4.423   3.931 -0.3971  0.0750 -0.2597
  679THF     H411818   1.362   4.158   3.973 -1.4180 -1.9990  0.4312
  679THF     H511819   1.245   4.159   3.840  2.3599  0.7736  1.0017
  679THF     H611820   1.464   4.405   4.026  1.2913 -0.3094 -1.9681
  679THF     H711821   1.458   4.501   3.870  0.3035 -0.7114  2.7940
  679THF     C811822   1.265   4.451   3.973  0.3329 -0.6900 -0.5122
  679THF     C911823   1.197   4.311   3.984  0.1156 -0.2683 -0.0367
  679THF    H1011824   1.228   4.492   3.879  0.0216 -0.7930 -1.0898
  679THF    H1111825   1.244   4.514   4.064  0.1227  1.1521  1.3357
  679THF    H1211826   1.184   4.291   4.095  2.3609 -0.8584  3.8431
  679THF    H1311827   1.105   4.312   3.936 -0.3962 -0.4501  0.1775
  680THF     O111828   1.072   0.655   0.109  0.5944  0.0666 -0.2372
  680THF     C211829   1.039   0.768   0.189 -0.1293  0.2881  0.7666
  680THF     C311830   1.209   0.655   0.071 -0.5151 -0.0665  0.1761
  680THF     H411831   1.037   0.749   0.295 -1.7839  0.7002  0.0352
  680THF     H511832   0.934   0.776   0.167 -0.6539 -1.6434  1.5220
  680THF     H611833   1.261   0.630   0.163  0.9409  1.9152  1.9918
  680THF     H711834   1.232   0.591  -0.015 -2.6816  2.3630  1.3708
  680THF     C811835   1.226   0.803   0.029 -0.3063  0.2903  0.1072
  680THF     C911836   1.130   0.874   0.131 -0.3704  0.0336  0.0078
  680THF    H1011837   1.193   0.822  -0.068  1.0804  1.8179 -0.3060
  680THF    H1111838   1.335   0.823   0.043  2.0629 -0.2240  0.9009
  680THF    H1211839   1.172   0.941   0.200 -2.6797  0.4467 -1.3468
  680THF    H1311840   1.067   0.941   0.071  2.5182 -1.9690 -1.7980
  681THF     O111841   3.556   2.551   2.253  0.1318 -0.6795  0.1274
  681THF     C211842   3.686   2.589   2.303 -0.2270 -0.1597 -0.4495
  681THF     C311843   3.577   2.503   2.116  0.6072  0.3592 -0.4413
  681THF     H411844   3.700   2.537   2.399  1.3226  0.7030  0.3695
  681THF     H511845   3.683   2.698   2.316 -0.7740 -2.2604 -0.8142
  681THF     H611846   3.486   2.453   2.084  0.7936  0.0351 -0.7205
  681THF     H711847   3.583   2.592   2.054  1.8828 -0.0439  1.7111
  681THF     C811848   3.716   2.437   2.118 -0.5353  0.0182  0.3656
  681THF     C911849   3.800   2.541   2.211 -0.5393 -0.5523 -0.1109
  681THF    H1011850   3.756   2.429   2.023 -0.8544 -0.5397  0.6724
  681THF    H1111851   3.719   2.336   2.172  3.1003 -0.6509  2.8091
  681THF    H1211852   3.891   2.498   2.260 -0.6120 -0.1605 -2.6836
  681THF    H1311853   3.837   2.628   2.159 -0.7763  0.3689  0.2631
  682THF     O111854   2.665   2.243   0.478 -0.5675  0.2329  0.2159
  682THF     C211855   2.669   2.240   0.623  0.1733 -1.0001  0.5392
  682THF     C311856   2.692   2.111   0.431  0.1436 -1.0445  0.1517
  682THF     H411857   2.619   2.316   0.680 -0.1329  0.4687 -0.9517
  682THF     H511858   2.772   2.250   0.659 -1.7999  1.8541  1.8220
  682THF     H611859   2.679   2.097   0.326 -1.0093 -1.4776  1.2222
  682THF     H711860   2.802   2.106   0.447  0.1666  1.1878  0.0842
  682THF     C811861   2.612   2.029   0.530  0.0612 -0.4969  0.5665
  682THF     C911862   2.600   2.110   0.656  0.2112  0.3297  0.6495
  682THF    H1011863   2.668   1.936   0.545  1.4436  0.1677  2.4497
  682THF    H1111864   2.523   1.996   0.497  1.4737  0.1230  2.6213
  682THF    H1211865   2.499   2.122   0.682  1.4889 -1.3260  1.4305
  682THF    H1311866   2.653   2.050   0.730 -1.9387  0.6085 -0.3220
  683THF     O111867   2.670   0.625   3.363 -0.1310 -0.6256 -0.0757
  683THF     C211868   2.711   0.492   3.398  0.8348  1.0331  0.0645
  683THF     C311869   2.533   0.652   3.365 -0.0525  0.0300 -0.0219
  683THF     H411870   2.768   0.496   3.491  1.3187 -2.0844 -1.6797
  683THF     H511871   2.766   0.442   3.317 -0.5288  0.6317  0.5224
  683THF     H611872   2.492   0.686   3.458  3.0412  0.6963  1.2575
  683THF     H711873   2.505   0.721   3.288 -4.1304 -0.0080  1.8546
  683THF     C811874   2.480   0.512   3.340 -0.9324 -0.0730 -0.5293
  683THF     C911875   2.578   0.416   3.412  0.0394 -0.6867 -0.0040
  683THF    H1011876   2.493   0.490   3.229  1.3298 -4.1606 -1.4150
  683THF    H1111877   2.376   0.487   3.362 -0.7606  0.9638  2.2292
  683THF    H1211878   2.560   0.412   3.520  2.0612  1.7536  0.4009
  683THF    H1311879   2.575   0.315   3.371 -0.3584  3.6939 -1.5120
  684THF     O111880   2.498   3.847   3.041  0.2748 -0.2957 -0.1830
  684THF     C211881   2.372   3.814   3.102 -0.7407  0.1247 -0.9157
  684THF     C311882   2.500   3.756   2.929 -0.1244 -0.0143  0.4372
  684THF     H411883   2.345   3.881   3.184 -3.5485 -1.0982  1.4030
  684THF     H511884   2.373   3.713   3.152 -1.5066  1.9975 -0.7108
  684THF     H611885   2.576   3.783   2.855 -1.1221  0.1653  1.3734
  684THF     H711886   2.531   3.654   2.962  2.1201  1.0398  2.0754
  684THF     C811887   2.360   3.757   2.875 -0.5178  0.1516 -0.4255
  684THF     C911888   2.281   3.830   2.983  0.2222 -0.1237  0.1348
  684THF    H1011889   2.321   3.655   2.862  0.1087 -1.1439 -0.7958
  684THF    H1111890   2.352   3.820   2.784 -0.7668 -2.3166  0.5581
  684THF    H1211891   2.275   3.937   2.971  1.2628 -1.2558  0.9100
  684THF    H1311892   2.179   3.787   2.992  0.1678  0.1422 -1.2963
  685THF     O111893   5.451   5.031   0.688  0.2327  0.8916  0.4855
  685THF     C211894   5.540   5.081   0.782 -0.2143 -0.5113 -0.4758
  685THF     C311895   5.513   4.994   0.564  0.2317 -0.1206 -0.4227
  685THF     H411896   5.549   5.008   0.859 -1.1614  0.4903 -0.3464
  685THF     H511897   5.512   5.183   0.816 -1.5449 -1.1087  0.4718
  685THF     H611898   5.469   4.903   0.507 -1.3249 -3.0935  0.4858
  685THF     H711899   5.494   5.087   0.508 -3.5257 -0.5435  3.7451
  685THF     C811900   5.655   4.981   0.611 -0.7908 -0.0125 -0.2279
  685THF     C911901   5.676   5.099   0.709  0.4865 -0.8001 -0.1811
  685THF    H1011902   5.720   4.970   0.531 -1.1423 -1.4384  1.1911
  685THF    H1111903   5.675   4.883   0.667  0.6204  0.3410  0.5425
  685THF    H1211904   5.750   5.083   0.785 -1.3394 -3.6002 -0.0455
  685THF    H1311905   5.690   5.197   0.660  1.3686 -0.3271  1.5884
  686THF     O111906   3.767   4.146   0.337  0.1535  0.1879 -0.7248
  686THF     C211907   3.846   4.160   0.449 -0.3487  0.4855 -0.2486
  686THF     C311908   3.813   4.231   0.230  0.0384  0.7166  0.0805
  686THF     H411909   3.934   4.096   0.448  2.4882 -0.6622  0.1179
  686THF     H511910   3.801   4.135   0.539  1.4066 -2.0753 -1.3712
  686THF     H611911   3.880   4.166   0.177  1.2958 -1.7010 -0.2500
  686THF     H711912   3.740   4.254   0.151 -0.6068  1.1082 -1.5028
  686THF     C811913   3.887   4.343   0.304  0.7689  0.1555 -0.2017
  686THF     C911914   3.878   4.310   0.452 -0.0054 -0.1769 -1.0027
  686THF    H1011915   3.825   4.429   0.284  1.0319 -0.0730  0.4861
  686THF    H1111916   3.992   4.370   0.270 -3.3944  2.7332  2.0840
  686THF    H1211917   3.963   4.338   0.512  1.2751  0.4289  1.7594
  686THF    H1311918   3.787   4.365   0.489  0.7973  2.1570  1.4192
  687THF     O111919   1.603   5.332   4.750 -0.1148  0.2698  0.3992
  687THF     C211920   1.724   5.270   4.724  0.6512 -0.2818  0.3316
  687THF     C311921   1.607   5.378   4.884 -0.0255  0.0548 -0.6923
  687THF     H411922   1.788   5.352   4.686 -1.0870  0.9028 -1.6865
  687THF     H511923   1.721   5.199   4.638 -0.6886 -3.0296  0.9743
  687THF     H611924   1.615   5.482   4.891 -0.4592  0.5464 -0.8815
  687THF     H711925   1.508   5.344   4.925 -0.5528 -1.0202 -2.3678
  687THF     C811926   1.731   5.305   4.947 -0.3328 -0.8576 -1.4732
  687THF     C911927   1.770   5.195   4.848  0.7230 -0.4938  0.8903
  687THF    H1011928   1.713   5.251   5.040 -1.4477  1.1738  0.9164
  687THF    H1111929   1.815   5.379   4.949 -0.9522  0.4301 -0.1208
  687THF    H1211930   1.880   5.176   4.851  2.0311  0.0028 -2.4508
  687THF    H1311931   1.720   5.102   4.873  0.3290 -0.1196  0.9099
  688THF     O111932   5.045   1.082   0.752  0.0796 -0.3741 -0.0472
  688THF     C211933   5.131   1.205   0.754  0.1910 -0.1166 -0.6001
  688THF     C311934   5.128   0.967   0.760 -0.5949  0.2900  0.7431
  688THF     H411935   5.142   1.226   0.855  0.4836  1.1147 -1.2158
  688THF     H511936   5.093   1.291   0.695 -1.9164  0.5726  0.7599
  688THF     H611937   5.158   0.960   0.862 -1.6441  2.6459 -2.2800
  688THF     H711938   5.080   0.870   0.733  1.0315  1.3387  1.4121
  688THF     C811939   5.246   1.014   0.672  0.3546  1.1169  0.1690
  688THF     C911940   5.262   1.160   0.686 -0.3894  0.4258 -0.3588
  688THF    H1011941   5.209   0.990   0.570 -2.3135  0.9720 -0.9125
  688THF    H1111942   5.333   0.952   0.696  1.1722 -1.7452  1.3761
  688THF    H1211943   5.360   1.186   0.729  1.4957  1.3346  2.2618
  688THF    H1311944   5.258   1.189   0.581 -0.6701 -1.3331  1.7270
  689THF     O111945   4.327   2.276   2.852 -0.0488 -0.1126  0.0765
  689THF     C211946   4.261   2.395   2.828 -0.2026  0.1874 -0.0296
  689THF     C311947   4.449   2.290   2.783 -0.0616 -0.5619  0.2817
  689THF     H411948   4.160   2.408   2.877  0.4427  2.1569  0.3792
  689THF     H511949   4.240   2.403   2.725  3.3768  1.5062  0.3934
  689THF     H611950   4.526   2.226   2.826  2.1363  1.1019  0.3660
  689THF     H711951   4.442   2.271   2.673 -1.4042 -1.5505  0.4550
  689THF     C811952   4.495   2.428   2.833  0.4715  0.0978  0.1431
  689THF     C911953   4.366   2.487   2.882 -0.0742 -0.1817 -0.8036
  689THF    H1011954   4.532   2.484   2.749  0.6440 -0.4944 -2.7525
  689THF    H1111955   4.569   2.423   2.909 -2.5926 -1.6354 -0.0143
  689THF    H1211956   4.359   2.488   2.996 -1.2438  0.9903 -0.2470
  689THF    H1311957   4.353   2.586   2.844  2.3753  4.4929 -2.0544
  690THF     O111958   0.386   5.184   1.394 -0.5129  0.0697  0.0262
  690THF     C211959   0.362   5.304   1.458 -0.0892 -0.3629  0.5884
  690THF     C311960   0.349   5.080   1.484 -0.4110 -0.2607  0.3736
  690THF     H411961   0.322   5.359   1.368  1.2744 -2.4686  1.4395
  690THF     H511962   0.455   5.342   1.478 -0.7843 -0.1550  0.6584
  690THF     H611963   0.320   4.984   1.442 -0.0182  2.5210 -1.5784
  690THF     H711964   0.436   5.048   1.537  0.3500 -0.8345  1.3539
  690THF     C811965   0.238   5.142   1.568  0.0765 -0.2743  0.3846
  690THF     C911966   0.277   5.286   1.578  0.9416  0.1537  0.1676
  690THF    H1011967   0.243   5.098   1.666 -1.6318 -0.3200  2.8662
  690THF    H1111968   0.140   5.129   1.520 -0.0006  0.6426 -0.4815
  690THF    H1211969   0.195   5.352   1.591  2.2026 -1.4133 -0.2258
  690THF    H1311970   0.346   5.301   1.662 -0.3499 -0.6825 -3.1802
  691THF     O111971   2.439   0.535   0.142  0.2829  0.4926 -0.0357
  691THF     C211972   2.398   0.399   0.103 -0.0999 -0.1482 -0.4150
  691THF     C311973   2.575   0.541   0.114  0.2168 -0.1383 -0.0945
  691THF     H411974   2.289   0.420   0.080 -0.7688  3.9681  0.0831
  691THF     H511975   2.419   0.330   0.185 -2.6581  0.6474  1.1633
  691THF     H611976   2.611   0.633   0.075  0.5359  2.9831 -0.3750
  691THF     H711977   2.638   0.501   0.196 -0.3512 -2.2551 -3.1946
  691THF     C811978   2.607   0.435   0.005 -0.3524  0.0931 -0.0433
  691THF     C911979   2.475   0.361  -0.019  0.3172  0.5067 -0.4803
  691THF    H1011980   2.672   0.348   0.042  1.0684 -0.7173  0.6032
  691THF    H1111981   2.637   0.480  -0.083 -1.9079  0.4851  0.8995
  691THF    H1211982   2.442   0.404  -0.111  2.3786 -0.0391  0.2129
  691THF    H1311983   2.474   0.252  -0.034  1.7548 -1.0019 -2.1645
  692THF     O111984   1.031   1.393   0.826 -0.2445  0.6078 -0.1367
  692THF     C211985   0.890   1.379   0.836  0.1080  0.9910  0.0845
  692THF     C311986   1.081   1.457   0.937  1.0182 -0.6981 -0.2501
  692THF     H411987   0.851   1.304   0.757  0.1312 -0.8100  0.5981
  692THF     H511988   0.838   1.474   0.815 -1.1560  0.9818 -0.3146
  692THF     H611989   1.191   1.440   0.941 -0.0962  1.9245 -1.0061
  692THF     H711990   1.061   1.564   0.947 -1.2382 -1.5586 -0.2750
  692THF     C811991   1.005   1.381   1.042 -0.1282  0.2797 -0.1538
  692THF     C911992   0.872   1.336   0.983  0.4544  0.7250 -0.2113
  692THF    H1011993   0.986   1.443   1.131 -1.0715 -1.6193  0.0576
  692THF    H1111994   1.061   1.291   1.073 -2.6524  0.1569  0.6439
  692THF    H1211995   0.877   1.234   0.988  2.6837 -0.5096 -0.1747
  692THF    H1311996   0.780   1.390   1.021  1.1647 -0.4938  0.8160
  693THF     O111997   3.248   4.217   2.158 -0.0912 -0.9950 -0.0753
  693THF     C211998   3.199   4.322   2.241 -0.7077 -0.1523 -0.2420
  693THF     C311999   3.390   4.241   2.154 -0.5698  0.7107  0.7616
  693THF     H412000   3.199   4.271   2.336 -1.3026 -1.3905 -2.2245
  693THF     H512001   3.097   4.344   2.218 -0.0521 -0.3551 -1.0391
  693THF     H612002   3.427   4.216   2.249  2.6015  0.7901 -2.0502
  693THF     H712003   3.438   4.174   2.084  1.7323 -4.3866 -0.0944
  693THF     C812004   3.398   4.385   2.124  0.0923  0.1024  1.0936
  693THF     C912005   3.295   4.439   2.217 -0.2989 -0.0041 -0.0399
  693THF    H1012006   3.377   4.399   2.021  0.6049 -4.7241  0.5941
  693THF    H1112007   3.496   4.424   2.150 -0.0583  0.4204  1.5560
  693THF    H1212008   3.345   4.483   2.307 -0.4176  0.5741 -1.5535
  693THF    H1312009   3.251   4.524   2.176  2.5458 -0.5068 -1.5226
  694THF     O112010   3.781   1.990   0.935 -0.0980  0.5005  0.6921
  694THF     C212011   3.836   2.046   1.049 -0.3881  0.2062 -0.7094
  694THF     C312012   3.875   1.898   0.876 -0.3827  0.3716  0.2881
  694THF     H412013   3.765   2.100   1.113  0.3760  0.3286  1.1183
  694THF     H512014   3.913   2.113   1.007  1.0854 -1.4212  0.5106
  694THF     H612015   3.818   1.806   0.855 -2.3497  1.9645 -0.6379
  694THF     H712016   3.923   1.937   0.784  1.4238 -1.7040 -1.7586
  694THF     C812017   3.973   1.866   0.985  0.3939 -0.2796  0.3163
  694THF     C912018   3.914   1.928   1.107 -0.1139 -0.5143 -0.5484
  694THF    H1012019   4.062   1.912   0.953  1.7815 -1.3716 -1.2713
  694THF    H1112020   3.980   1.761   0.998  1.3269 -1.7162 -1.7001
  694THF    H1212021   3.842   1.852   1.152 -0.7980  0.5559  1.7492
  694THF    H1312022   3.991   1.957   1.176  1.6023 -1.8210 -0.5374
  695THF     O112023   3.040   4.718   2.501 -0.2316  0.1911  0.4897
  695THF     C212024   3.100   4.852   2.504  0.1267  0.6426 -0.9562
  695THF     C312025   2.941   4.712   2.401 -0.1930  0.0624  0.2603
  695THF     H412026   3.210   4.849   2.537 -0.7804 -1.9521  2.1183
  695THF     H512027   3.051   4.901   2.590 -0.8097 -0.7909  2.1730
  695THF     H612028   2.975   4.654   2.319  0.0770 -0.1921 -0.3176
  695THF     H712029   2.848   4.663   2.432 -3.6522 -0.5686  2.2291
  695THF     C812030   2.918   4.851   2.355 -0.8019  0.4083 -0.0426
  695THF     C912031   3.047   4.909   2.375  0.7101 -0.6338  0.2924
  695THF    H1012032   2.829   4.885   2.410 -1.5471  2.0925 -0.9146
  695THF    H1112033   2.879   4.847   2.253  0.8909 -0.7111 -1.1200
  695THF    H1212034   3.104   4.878   2.288 -0.0016 -0.0180  2.9078
  695THF    H1312035   3.041   5.017   2.375 -0.4071  0.2559 -1.2077
  696THF     O112036   3.138   4.182   4.940 -0.4478 -0.4087 -0.2204
  696THF     C212037   3.013   4.220   4.997 -0.2842 -0.0408 -0.1335
  696THF     C312038   3.121   4.061   4.870 -0.2689  0.0656 -0.3426
  696THF     H412039   2.962   4.273   4.906  1.6076 -1.4176 -1.2933
  696THF     H512040   3.028   4.292   5.079 -0.3249  1.6026 -1.6301
  696THF     H612041   3.079   4.069   4.773 -0.0467  1.2019 -2.4276
  696THF     H712042   3.219   4.012   4.871 -0.4971  1.3244  1.3593
  696THF     C812043   3.024   3.988   4.954  0.2762  0.8062  0.1348
  696THF     C912044   2.966   4.090   5.047 -0.1922 -0.1546  0.0463
  696THF    H1012045   3.076   3.916   5.014  1.2686  0.8501  0.9189
  696THF    H1112046   2.952   3.939   4.898  0.8196  3.7521 -0.5679
  696THF    H1212047   2.855   4.079   5.055 -1.0325 -1.5350  0.3918
  696THF    H1312048   3.010   4.069   5.145  1.1094 -1.5177 -0.5451
  697THF     O112049   1.650   2.939   1.695 -0.1181  0.1984  0.0051
  697THF     C212050   1.770   3.011   1.677  0.3144  0.1692  0.0092
  697THF     C312051   1.556   3.036   1.737  0.1901 -0.0625 -0.5787
  697THF     H412052   1.841   2.955   1.619 -2.0425  2.0874  0.6369
  697THF     H512053   1.826   3.006   1.769 -1.9306  0.7467  0.7141
  697THF     H612054   1.456   3.001   1.710  0.2460  2.3566 -0.7727
  697THF     H712055   1.563   3.050   1.849 -0.1160  2.0343 -0.0901
  697THF     C812056   1.580   3.164   1.662 -0.9960  0.5055 -0.3397
  697THF     C912057   1.731   3.144   1.627  0.1868 -0.3780  0.5971
  697THF    H1012058   1.573   3.262   1.703  1.3073 -0.9342 -0.1836
  697THF    H1112059   1.523   3.161   1.573 -1.1263  2.5229 -1.5510
  697THF    H1212060   1.740   3.164   1.520  0.1641  0.6372  1.1762
  697THF    H1312061   1.804   3.214   1.666  1.2916  0.1883  1.3429
  698THF     O112062   2.520   2.677   0.419  0.5471 -0.5877  0.1759
  698THF     C212063   2.533   2.563   0.332  0.0170 -0.4504 -0.0509
  698THF     C312064   2.612   2.767   0.371  0.2980 -0.1854  0.0122
  698THF     H412065   2.504   2.591   0.235 -2.6413 -1.2397  0.9042
  698THF     H512066   2.476   2.477   0.364 -1.0362  3.8493  0.4668
  698THF     H612067   2.564   2.823   0.282  0.4351  1.9468 -1.3000
  698THF     H712068   2.637   2.838   0.454 -1.5696  0.3718  1.5019
  698THF     C812069   2.733   2.691   0.345 -0.6406  0.3127  0.5596
  698THF     C912070   2.690   2.541   0.333  0.5248 -0.4307  0.5305
  698THF    H1012071   2.830   2.715   0.392 -0.0757  1.6245 -0.2505
  698THF    H1112072   2.760   2.712   0.237 -1.9086 -0.9672 -0.1323
  698THF    H1212073   2.728   2.486   0.248 -0.0008  1.4645  1.0025
  698THF    H1312074   2.729   2.487   0.415 -0.0411  1.8817  0.4785
  699THF     O112075   2.028   1.153   4.328 -0.4986 -0.4749  0.3919
  699THF     C212076   1.970   1.155   4.197  0.1337  0.2067  0.4152
  699THF     C312077   1.923   1.123   4.418  0.3995  0.2752  0.6837
  699THF     H412078   2.055   1.152   4.128 -0.2437 -1.5082  0.1571
  699THF     H512079   1.924   1.248   4.200  0.2004  0.4100  1.6789
  699THF     H612080   1.957   1.074   4.505  0.5484  0.0842  1.3013
  699THF     H712081   1.869   1.208   4.453  0.0594 -1.4932  0.7635
  699THF     C812082   1.832   1.022   4.336 -0.6922 -0.3826 -0.6696
  699THF     C912083   1.881   1.036   4.195  1.0683 -0.1609  0.0037
  699THF    H1012084   1.730   1.050   4.352  0.1533 -1.2909 -2.0493
  699THF    H1112085   1.853   0.921   4.387  0.6275 -0.7279 -0.9201
  699THF    H1212086   1.941   0.945   4.188  0.7658 -1.4495 -2.2378
  699THF    H1312087   1.796   1.035   4.123  0.1183 -0.3870 -2.2045
  700THF     O112088   3.254   1.495   0.675  0.6385  0.1403  0.1211
  700THF     C212089   3.378   1.526   0.622  0.2320 -0.0083  0.2545
  700THF     C312090   3.258   1.374   0.741 -0.9665 -0.2125 -0.8240
  700THF     H412091   3.458   1.542   0.696 -0.0060  1.5043  4.7191
  700THF     H512092   3.364   1.607   0.554 -3.2547 -1.4362  0.8304
  700THF     H612093   3.284   1.371   0.846 -0.5779 -0.7910 -1.2995
  700THF     H712094   3.160   1.335   0.737 -2.0614  0.6001  1.6987
  700THF     C812095   3.340   1.289   0.645 -0.3211 -0.8077  0.1493
  700THF     C912096   3.410   1.388   0.554 -0.1424 -0.9140 -0.0673
  700THF    H1012097   3.276   1.231   0.580  0.6294 -0.2812 -2.9707
  700THF    H1112098   3.405   1.233   0.709  1.9458  1.8838  0.0811
  700THF    H1212099   3.514   1.379   0.551 -1.1950 -0.6158 -4.2849
  700THF    H1312100   3.380   1.386   0.447  2.3453 -0.0925 -3.0609
  701THF     O112101   2.001   0.938   4.853 -0.0028 -0.5747 -0.1004
  701THF     C212102   2.079   0.903   4.961  0.1807 -0.1283 -0.5941
  701THF     C312103   1.962   0.826   4.785  0.1841 -0.1656  1.2537
  701THF     H412104   2.077   0.983   5.027 -0.4406  0.4963 -0.5325
  701THF     H512105   2.176   0.872   4.942  0.5550 -0.5845 -0.9440
  701THF     H612106   1.882   0.849   4.709 -1.6300 -2.2881 -1.7346
  701THF     H712107   2.051   0.794   4.723 -1.7490  1.4040  1.2751
  701THF     C812108   1.925   0.728   4.898  0.6505  0.5778  0.4741
  701THF     C912109   1.997   0.785   5.020 -0.4002 -0.6345 -0.3441
  701THF    H1012110   1.956   0.625   4.880  0.9420  1.9526 -1.8109
  701THF    H1112111   1.818   0.724   4.910  0.3820 -1.2073  1.2736
  701THF    H1212112   1.926   0.814   5.098  1.2161 -1.8913  0.9103
  701THF    H1312113   2.062   0.715   5.067  0.1728  1.1972  0.6749
  702THF     O112114   4.938   2.082   3.084  0.5071  0.3879  0.1283
  702THF     C212115   4.888   2.211   3.116 -0.3886  0.1737  0.8481
  702THF     C312116   4.840   2.030   2.986  0.5451 -0.1011 -0.4846
  702THF     H412117   4.968   2.263   3.174  3.1823 -2.5965  0.0960
  702THF     H512118   4.797   2.226   3.174  0.3519 -1.4138 -0.6993
  702THF     H612119   4.849   1.931   2.935  1.4865 -2.9515 -0.4300
  702THF     H712120   4.743   2.017   3.037  0.9238 -2.9017 -1.5602
  702THF     C812121   4.823   2.148   2.892 -0.3390 -0.3797  0.7424
  702THF     C912122   4.871   2.274   2.970  0.5436  0.2530  0.1625
  702THF    H1012123   4.722   2.157   2.839  0.9913  2.4579 -1.2191
  702THF    H1112124   4.890   2.123   2.802  1.2406  1.2813 -2.1203
  702THF    H1212125   4.967   2.310   2.939 -0.6627 -0.1278  0.9505
  702THF    H1312126   4.803   2.356   2.968 -1.9647 -2.3416 -0.6373
  703THF     O112127   5.113   4.514   3.644 -0.3688 -0.2012 -0.6072
  703THF     C212128   5.020   4.427   3.715  0.6879 -0.0414  0.2601
  703THF     C312129   5.058   4.642   3.629 -1.0504  0.6422  0.3707
  703THF     H412130   5.068   4.375   3.797 -0.4821  1.1517 -0.7064
  703THF     H512131   4.984   4.354   3.645 -0.8124  0.8994 -0.1041
  703THF     H612132   5.114   4.724   3.604 -0.7562 -0.4637  1.4600
  703THF     H712133   4.988   4.626   3.546 -0.0487  0.5770  0.9511
  703THF     C812134   4.970   4.655   3.760 -0.4035  0.0146  0.0774
  703THF     C912135   4.908   4.519   3.757  0.1776  0.1491 -0.0557
  703THF    H1012136   4.900   4.737   3.749  2.0806 -0.7129  0.2286
  703THF    H1112137   5.028   4.662   3.855  1.3196 -1.5544  0.6647
  703THF    H1212138   4.871   4.485   3.856  1.8357 -2.4391  0.5076
  703THF    H1312139   4.825   4.515   3.693  2.7696  1.9476  1.1825
  704THF     O112140   4.643   5.149   3.457  0.3775 -0.0062 -0.5922
  704THF     C212141   4.754   5.096   3.530  0.7096 -0.7321 -0.6417
  704THF     C312142   4.627   5.285   3.499 -0.1748 -0.3075  0.1865
  704THF     H412143   4.793   4.998   3.494  1.9309  0.8806 -1.8074
  704THF     H512144   4.736   5.071   3.638 -0.1249 -0.5913  4.7434
  704THF     H612145   4.571   5.351   3.439 -0.1901  1.8896 -1.9487
  704THF     H712146   4.587   5.288   3.601 -0.6649  0.1443  0.4633
  704THF     C812147   4.775   5.335   3.503 -0.4871  0.0182  0.1366
  704THF     C912148   4.863   5.216   3.525 -0.1429 -0.3555 -0.4042
  704THF    H1012149   4.783   5.412   3.579  1.9751  1.8220 -0.8177
  704THF    H1112150   4.801   5.372   3.404  0.4882 -0.0053  0.6075
  704THF    H1212151   4.934   5.210   3.442 -1.3839  0.2567  1.3419
  704THF    H1312152   4.928   5.216   3.604 -1.1791  1.0862  1.2194
  705THF     O112153   1.069   3.929   3.136  0.3092  0.1922  0.2206
  705THF     C212154   1.134   3.909   3.258  0.3928 -0.4369  0.1715
  705THF     C312155   1.030   4.069   3.126 -1.1267 -0.2238 -0.0786
  705THF     H412156   1.184   3.808   3.267  1.7935 -0.3663  0.9419
  705THF     H512157   1.063   3.916   3.345 -1.2525  0.3868 -1.4594
  705THF     H612158   0.996   4.095   3.017  0.1544  1.2647 -1.4278
  705THF     H712159   0.953   4.098   3.195  4.9260  0.5034  0.2311
  705THF     C812160   1.154   4.145   3.171 -0.1807 -0.6601  0.1095
  705THF     C912161   1.231   4.031   3.253  0.2600  0.0950  0.0630
  705THF    H1012162   1.130   4.230   3.232 -0.5316 -1.0117  0.0069
  705THF    H1112163   1.216   4.176   3.082  2.8994  0.5203  1.1240
  705THF    H1212164   1.336   4.001   3.223 -1.6410 -0.6545 -2.5390
  705THF    H1312165   1.241   4.054   3.355  1.3387 -1.0114 -2.2363
  706THF     O112166   1.872   3.395   5.348 -0.0954 -0.1757 -0.1945
  706THF     C212167   1.967   3.335   5.433 -0.0292  0.4288 -0.3410
  706THF     C312168   1.914   3.526   5.327 -0.1141  0.0725  0.7953
  706THF     H412169   1.965   3.226   5.425  1.4078  0.4326 -1.7580
  706THF     H512170   1.937   3.349   5.538 -2.7849  0.7151 -2.1629
  706THF     H612171   1.925   3.538   5.217 -2.4021  0.5635 -3.3199
  706THF     H712172   1.835   3.605   5.340  2.3146  0.3594 -1.3546
  706THF     C812173   2.046   3.547   5.388 -0.1287 -0.3717  0.0540
  706THF     C912174   2.093   3.404   5.399  0.6418 -0.8992  0.4186
  706THF    H1012175   2.031   3.586   5.485 -0.4383 -0.5512 -0.1315
  706THF    H1112176   2.111   3.614   5.325  1.8160 -0.2004 -0.3264
  706THF    H1212177   2.132   3.372   5.302 -0.5171  1.8733 -0.4017
  706THF    H1312178   2.174   3.397   5.470  1.8952 -1.5786 -0.6387
  707THF     O112179   3.691   5.271   4.922  0.1537  0.0104 -0.6317
  707THF     C212180   3.668   5.231   4.785 -0.6016 -0.5144 -0.4837
  707THF     C312181   3.567   5.263   4.983 -0.1104  0.1441  0.4927
  707THF     H412182   3.657   5.124   4.776 -0.6747 -0.2352 -2.8840
  707THF     H512183   3.751   5.261   4.722  0.8006 -0.7828 -0.8464
  707THF     H612184   3.548   5.158   5.009  0.3312 -0.5330 -0.4001
  707THF     H712185   3.564   5.326   5.076  1.0679  1.3788  0.8997
  707THF     C812186   3.467   5.325   4.884  0.6905  0.4084  0.3705
  707THF     C912187   3.533   5.300   4.757 -0.3658 -0.1730 -0.1723
  707THF    H1012188   3.450   5.432   4.894  1.0783  0.0369  2.0977
  707THF    H1112189   3.363   5.285   4.902 -1.5382 -1.1599  0.6162
  707THF    H1212190   3.461   5.249   4.697 -0.7392 -0.2700 -0.8215
  707THF    H1312191   3.550   5.402   4.721  0.5951  1.4619  1.9951
  708THF     O112192   1.111   1.443   5.355 -0.1152  0.4293 -0.0390
  708THF     C212193   1.033   1.478   5.241  0.4314 -0.1272 -0.0414
  708THF     C312194   1.150   1.300   5.347 -0.0088  0.7673 -0.4719
  708THF     H412195   1.099   1.474   5.163 -0.0279  0.8769  2.1534
  708THF     H512196   0.989   1.579   5.257  1.7687  0.0080 -1.9021
  708THF     H612197   1.244   1.287   5.291  1.2189  2.5695  0.9788
  708THF     H712198   1.169   1.269   5.447 -1.7805  1.7673 -1.3054
  708THF     C812199   1.018   1.243   5.281 -0.1335  0.4039  0.5963
  708THF     C912200   0.942   1.366   5.226  0.2891  0.1087  1.3162
  708THF    H1012201   0.964   1.200   5.363  1.3972  0.8887  1.0575
  708THF    H1112202   1.039   1.170   5.204  0.3330 -1.2934 -0.8144
  708THF    H1212203   0.909   1.363   5.123 -1.4148 -1.9811 -0.8430
  708THF    H1312204   0.853   1.388   5.286 -0.3365 -3.3053  0.5246
  709THF     O112205   4.911   3.633   4.104  0.1408  0.3834  0.2664
  709THF     C212206   4.910   3.580   3.972  0.5655 -0.3035 -0.2830
  709THF     C312207   4.963   3.763   4.097  0.0720  0.7450 -0.1263
  709THF     H412208   4.837   3.631   3.911  3.3702  0.7993 -3.7911
  709THF     H512209   4.892   3.473   3.956 -1.1151  1.0513 -0.9766
  709THF     H612210   4.878   3.830   4.073 -1.8499  4.3242  1.6485
  709THF     H712211   5.004   3.789   4.193  0.0881  0.4502 -2.9023
  709THF     C812212   5.060   3.761   3.979 -0.4145 -0.0177 -0.5562
  709THF     C912213   5.044   3.615   3.922  0.4982 -0.1381 -0.1208
  709THF    H1012214   5.157   3.783   4.005  1.5286  0.9410  0.8932
  709THF    H1112215   5.029   3.845   3.914 -0.0921 -0.2289  0.7147
  709THF    H1212216   5.044   3.607   3.807  2.5505  1.3998 -1.1508
  709THF    H1312217   5.121   3.548   3.955 -2.6114  0.1488  0.4770
  710THF     O112218   3.708   1.916   4.532 -0.1236  0.2290 -0.5167
  710THF     C212219   3.843   1.898   4.495  0.0874  0.5889 -0.2036
  710THF     C312220   3.643   1.990   4.438 -0.5774  0.4091  0.4631
  710THF     H412221   3.886   1.808   4.547  1.3344 -1.8822  0.9088
  710THF     H512222   3.907   1.981   4.522 -2.0972 -1.1702 -1.2552
  710THF     H612223   3.544   1.957   4.418  1.0129  0.9234 -1.4348
  710THF     H712224   3.622   2.089   4.475 -1.6563 -0.7186 -3.2313
  710THF     C812225   3.728   1.986   4.309  0.5389 -0.1537 -0.1823
  710THF     C912226   3.840   1.886   4.345 -0.2381 -0.7859  0.6352
  710THF    H1012227   3.768   2.082   4.301  0.0021 -1.9270 -3.2001
  710THF    H1112228   3.677   1.952   4.225  0.9572  2.9265 -1.3855
  710THF    H1212229   3.821   1.787   4.311 -1.3136  1.4529  1.1970
  710THF    H1312230   3.931   1.911   4.296 -0.1980 -0.5093  0.2910
  711THF     O112231   3.099   2.389   2.339 -0.9001  0.0233 -0.2284
  711THF     C212232   3.044   2.386   2.468  0.4831  0.0563 -0.7055
  711THF     C312233   3.215   2.306   2.333 -0.5885 -0.3948  0.2169
  711THF     H412234   2.971   2.312   2.488  0.8254 -1.5477 -0.2354
  711THF     H512235   2.992   2.483   2.473  2.7727 -0.4201 -2.6109
  711THF     H612236   3.195   2.195   2.346  1.7653  1.3758  0.2243
  711THF     H712237   3.262   2.318   2.231 -1.0585  0.9833  0.4021
  711THF     C812238   3.284   2.351   2.451 -0.4890 -0.0553 -0.8759
  711THF     C912239   3.176   2.378   2.552  0.5505 -0.3151 -0.3003
  711THF    H1012240   3.331   2.448   2.437 -1.1235  1.9733 -1.4277
  711THF    H1112241   3.352   2.275   2.486 -2.6413 -3.1940  1.5335
  711THF    H1212242   3.173   2.300   2.628  1.4131 -1.2843 -1.5079
  711THF    H1312243   3.199   2.475   2.594 -1.9934 -0.2126 -0.6989
  712THF     O112244   5.274   3.354   5.135 -0.0851  0.0581  0.0627
  712THF     C212245   5.187   3.431   5.212 -0.4820  0.4140 -0.1041
  712THF     C312246   5.233   3.213   5.122 -0.2651 -0.2143  0.6084
  712THF     H412247   5.100   3.464   5.152 -2.9616 -1.6496 -1.3203
  712THF     H512248   5.233   3.516   5.256 -0.5138 -2.4762 -1.8404
  712THF     H612249   5.149   3.202   5.052 -1.2864 -2.0339  0.3503
  712THF     H712250   5.325   3.160   5.094  1.8969  0.7537  1.5153
  712THF     C812251   5.180   3.187   5.261  0.4609 -0.2279 -0.1341
  712THF     C912252   5.143   3.327   5.321 -0.0740 -0.3467  0.0434
  712THF    H1012253   5.268   3.160   5.324 -0.0409 -1.4818  0.7491
  712THF    H1112254   5.118   3.109   5.297  1.5116  0.3946  1.4689
  712THF    H1212255   5.038   3.346   5.350 -0.8153 -0.7362 -0.7656
  712THF    H1312256   5.193   3.347   5.420 -0.1302 -1.1594  1.0176
  713THF     O112257   2.698   1.479   4.644 -0.5689 -0.3307 -0.2264
  713THF     C212258   2.718   1.539   4.773  0.4245  0.2922  0.2328
  713THF     C312259   2.816   1.516   4.568  0.0753 -1.0268 -0.4615
  713THF     H412260   2.743   1.467   4.860 -1.1183 -0.6954  0.9422
  713THF     H512261   2.638   1.610   4.799  2.9361  0.6808  2.0294
  713THF     H612262   2.839   1.432   4.498  0.0517  0.7325  0.1260
  713THF     H712263   2.792   1.600   4.503 -2.3251 -0.2741 -0.0051
  713THF     C812264   2.935   1.557   4.661  0.4973 -0.0756 -0.1968
  713THF     C912265   2.848   1.629   4.768 -0.0339 -0.0076  0.4830
  713THF    H1012266   3.021   1.607   4.621  0.3526  1.5344 -1.7038
  713THF    H1112267   2.985   1.466   4.703 -0.1873  1.2390  0.8232
  713THF    H1212268   2.888   1.643   4.860 -2.6003 -0.7383 -1.6791
  713THF    H1312269   2.807   1.731   4.743  0.7577 -0.9853  0.5174
  714THF     O112270   2.069   1.112   5.504 -0.2443 -0.4754 -0.2489
  714THF     C212271   2.075   1.020   5.398 -0.4260 -0.3083 -0.2741
  714THF     C312272   1.963   1.065   5.585 -0.4285 -0.9458  0.2243
  714THF     H412273   2.100   0.928   5.446 -0.1452  0.9239 -0.1334
  714THF     H512274   2.147   1.040   5.321  1.3862 -1.6718 -0.8065
  714THF     H612275   1.986   0.983   5.660  0.5037  0.8996  3.3428
  714THF     H712276   1.935   1.153   5.644 -0.2872  1.4247 -0.5131
  714THF     C812277   1.858   1.030   5.483 -0.1178 -0.5626 -0.2752
  714THF     C912278   1.937   1.028   5.353 -0.4953  0.4517  0.6097
  714THF    H1012279   1.767   1.094   5.480 -2.6149  0.1829 -1.2374
  714THF    H1112280   1.824   0.927   5.516  1.9361 -1.1724  0.8737
  714THF    H1212281   1.907   0.939   5.295 -2.7163  1.2902  0.1264
  714THF    H1312282   1.921   1.118   5.296 -3.0272  1.0618 -0.4512
  715THF     O112283   2.046   5.141   0.348 -0.1458 -0.0664  0.0277
  715THF     C212284   2.180   5.164   0.296  0.1051  0.5577  0.1287
  715THF     C312285   1.989   5.272   0.361  0.6229  0.2971  0.2790
  715THF     H412286   2.222   5.075   0.254 -1.0711  0.6423 -0.9615
  715THF     H512287   2.239   5.196   0.390  0.5809  0.2254 -0.8576
  715THF     H612288   1.879   5.262   0.366 -1.8324  1.1883 -0.6832
  715THF     H712289   2.008   5.322   0.454  0.8595 -0.8299 -1.1111
  715THF     C812290   2.044   5.355   0.240 -1.1029  0.0429 -0.2026
  715THF     C912291   2.153   5.270   0.187 -0.1778 -0.7959 -0.0755
  715THF    H1012292   2.091   5.442   0.278 -1.9003 -2.9055  1.6439
  715THF    H1112293   1.964   5.390   0.168 -0.9946  0.1587  0.3333
  715THF    H1212294   2.121   5.218   0.093 -0.9779 -0.9081 -2.2705
  715THF    H1312295   2.254   5.314   0.163 -1.3629  1.3204  0.4534
  716THF     O112296   2.396   3.185   4.162 -0.5241  0.1473  0.2432
  716THF     C212297   2.271   3.128   4.168  0.4086 -0.3582  0.3958
  716THF     C312298   2.403   3.301   4.076 -0.2344 -0.8776 -0.1018
  716THF     H412299   2.222   3.168   4.256  2.1717  1.7111 -1.3015
  716THF     H512300   2.262   3.017   4.181 -0.8535  0.0681  0.9217
  716THF     H612301   2.462   3.385   4.126  0.5584  1.4008 -1.7327
  716THF     H712302   2.452   3.272   3.991 -1.8595 -0.1112  1.1289
  716THF     C812303   2.256   3.333   4.047 -0.0357  0.0356 -0.1803
  716THF     C912304   2.189   3.200   4.061  0.1456 -0.2155 -0.6149
  716THF    H1012305   2.250   3.375   3.947 -1.0884  1.3609 -0.0190
  716THF    H1112306   2.197   3.400   4.113 -0.9953 -1.5997  2.0708
  716THF    H1212307   2.084   3.212   4.080  0.1264  0.2917  0.3736
  716THF    H1312308   2.217   3.135   3.975  0.9060 -2.2298  0.8064
  717THF     O112309   3.939   1.049   2.395  0.3088 -0.1053  0.4111
  717THF     C212310   3.826   1.010   2.319  0.5474  0.0039  0.8128
  717THF     C312311   4.053   0.996   2.335 -0.1435  0.9687  0.0409
  717THF     H412312   3.819   1.058   2.224  0.8045 -0.9813 -1.8554
  717THF     H512313   3.734   1.026   2.376  0.1581 -0.1593 -0.2205
  717THF     H612314   4.068   1.057   2.245  2.4182 -0.6613 -1.8639
  717THF     H712315   4.142   0.999   2.396  2.5377 -2.2239  2.7198
  717THF     C812316   4.008   0.862   2.295 -0.3010 -0.3003 -0.2199
  717THF     C912317   3.848   0.863   2.305  0.1445 -0.6433  0.4081
  717THF    H1012318   4.044   0.785   2.370 -2.9545 -0.8462 -1.0930
  717THF    H1112319   4.040   0.827   2.195 -0.2481 -0.3750  1.2490
  717THF    H1212320   3.793   0.824   2.218 -2.4512  3.5999 -1.9873
  717THF    H1312321   3.829   0.806   2.394  3.3206  1.7478 -1.6762
  718THF     O112322   0.189   4.475   2.108 -0.2139 -0.2219 -0.1477
  718THF     C212323   0.136   4.414   2.229  0.5160  0.7394 -0.6554
  718THF     C312324   0.088   4.453   2.008 -0.3794 -0.3548  0.2825
  718THF     H412325   0.057   4.465   2.281 -1.2928 -1.6256  0.6534
  718THF     H512326   0.215   4.381   2.294 -1.4517  0.1439  0.0805
  718THF     H612327   0.017   4.536   2.007  0.3048 -0.7390 -0.6299
  718THF     H712328   0.140   4.458   1.911  1.9742  1.4671  0.3837
  718THF     C812329   0.020   4.322   2.041 -0.1477 -0.0793  0.5309
  718THF     C912330   0.078   4.285   2.177 -0.2220  0.5911 -0.1374
  718THF    H1012331   0.034   4.248   1.961  0.1785  0.3552  1.9172
  718THF    H1112332  -0.089   4.344   2.055 -2.5699 -1.4507 -1.2370
  718THF    H1212333   0.006   4.238   2.249 -1.6908  0.8963  0.3965
  718THF    H1312334   0.158   4.219   2.164 -0.6025 -0.3170 -1.2418
  719THF     O112335   0.841   0.808   3.961 -0.2852 -0.3107 -0.1397
  719THF     C212336   0.790   0.780   3.828 -0.8144 -0.6063  0.0097
  719THF     C312337   0.924   0.917   3.948 -0.4974 -0.3089 -0.6293
  719THF     H412338   0.696   0.733   3.816  0.1876 -0.3077 -1.6445
  719THF     H512339   0.870   0.717   3.782  0.5423 -0.0319 -1.9566
  719THF     H612340   0.934   0.957   4.049 -0.2144 -0.6157  1.5416
  719THF     H712341   1.011   0.865   3.923 -1.7011 -0.3508  1.9012
  719THF     C812342   0.861   1.013   3.844 -0.4944 -0.1844 -0.4853
  719THF     C912343   0.798   0.910   3.745  0.1018  0.6787 -0.1238
  719THF    H1012344   0.929   1.093   3.800  2.2655 -0.8696  0.5893
  719THF    H1112345   0.795   1.078   3.904 -3.3891  1.8166 -0.3998
  719THF    H1212346   0.692   0.936   3.725 -1.3704 -0.5247  1.1515
  719THF    H1312347   0.862   0.911   3.659  0.4159 -0.2991  1.9593
  720THF     O112348   0.590   1.019   4.468 -0.2092  0.1181  0.7695
  720THF     C212349   0.586   1.066   4.601 -0.1119  0.1919  0.2582
  720THF     C312350   0.577   0.876   4.461 -0.3754 -0.2934 -0.0049
  720THF     H412351   0.538   1.155   4.616  0.5434  0.2873  0.4053
  720THF     H512352   0.688   1.085   4.637  0.4376  4.5567 -0.5807
  720THF     H612353   0.476   0.850   4.426  1.7406  1.1815 -0.9726
  720THF     H712354   0.645   0.833   4.391 -1.5533  0.3025 -2.0228
  720THF     C812355   0.589   0.830   4.604  0.4988 -0.5865 -0.5737
  720THF     C912356   0.526   0.942   4.679 -0.5707 -0.8738 -0.3503
  720THF    H1012357   0.694   0.831   4.643  2.2413  1.0541 -1.3710
  720THF    H1112358   0.542   0.734   4.627  1.0630  2.3298  0.3961
  720THF    H1212359   0.420   0.943   4.663 -1.3623 -1.9890  1.4973
  720THF    H1312360   0.554   0.952   4.783  2.0238  1.0255  0.5126
  721THF     O112361   1.327   1.838   2.839 -0.4376  0.2853 -0.3160
  721THF     C212362   1.439   1.911   2.788  0.3129 -0.0377  0.6151
  721THF     C312363   1.214   1.883   2.764  0.6953 -0.1949 -0.9817
  721THF     H412364   1.541   1.873   2.815 -0.4798 -0.6874  0.0656
  721THF     H512365   1.435   2.018   2.818 -0.0699  2.2546 -0.2229
  721THF     H612366   1.149   1.795   2.750  0.1270 -2.5585 -0.3429
  721THF     H712367   1.159   1.950   2.825  0.7276 -2.5925  0.6221
  721THF     C812368   1.266   1.935   2.626  0.1162  0.5783  0.2841
  721THF     C912369   1.413   1.900   2.640 -0.0328  0.6747  0.4873
  721THF    H1012370   1.241   2.043   2.627  0.9153  3.2311 -0.5001
  721THF    H1112371   1.218   1.888   2.542  1.4554  1.9476  0.0341
  721THF    H1212372   1.443   1.801   2.612  1.6680  0.1242 -1.2947
  721THF    H1312373   1.478   1.966   2.575  0.9950  1.9161  1.6380
  722THF     O112374   0.680   2.638   2.980  0.2426  0.1548 -0.4182
  722THF     C212375   0.571   2.550   3.000 -0.2611  0.3310  0.0776
  722THF     C312376   0.623   2.758   2.925  1.0199 -0.2362 -0.4752
  722THF     H412377   0.600   2.483   3.087 -0.1214 -0.5060  1.6575
  722THF     H512378   0.563   2.487   2.906 -3.2269  0.5705  1.8778
  722THF     H612379   0.691   2.837   2.932 -1.1669 -1.1448  1.6737
  722THF     H712380   0.590   2.742   2.823  0.8355 -0.3293  0.8772
  722THF     C812381   0.507   2.776   3.025  0.3315  0.2822  0.5198
  722THF     C912382   0.451   2.636   3.023  0.6873 -0.4780 -0.2797
  722THF    H1012383   0.428   2.849   2.994  0.1185  1.1275 -1.0938
  722THF    H1112384   0.534   2.789   3.126  0.3515 -0.1144  2.0462
  722THF    H1212385   0.392   2.624   3.113 -1.7011  0.0854  0.8476
  722THF    H1312386   0.383   2.624   2.939 -2.5867 -0.7394  0.0941
  723THF     O112387   3.958   0.798   0.260 -0.1693  0.1641  0.2538
  723THF     C212388   3.880   0.684   0.242 -0.3138  0.0096  0.9820
  723THF     C312389   4.000   0.839   0.142 -0.4114 -0.5416 -0.0213
  723THF     H412390   3.785   0.719   0.194  0.5569  1.2091  1.8393
  723THF     H512391   3.857   0.628   0.330 -1.6398 -0.5530  0.2842
  723THF     H612392   3.912   0.855   0.080 -2.2351 -2.2030  1.1931
  723THF     H712393   4.073   0.914   0.138 -2.6250  0.0013  2.4319
  723THF     C812394   4.050   0.708   0.085  0.4748 -0.6368 -0.0828
  723THF     C912395   3.967   0.600   0.154  0.0835 -0.2699  0.0200
  723THF    H1012396   4.156   0.699   0.105  0.5762  1.3753 -0.4215
  723THF    H1112397   4.040   0.696  -0.024  0.3825 -1.4716 -2.3781
  723THF    H1212398   3.915   0.536   0.078 -0.7148 -1.2580  0.4550
  723THF    H1312399   4.028   0.533   0.214 -2.5654 -0.1937 -1.8491
  724THF     O112400   3.012   0.106   4.192  0.2929  0.6845 -0.3479
  724THF     C212401   3.058   0.233   4.152 -0.2914  0.9846 -0.4868
  724THF     C312402   3.050   0.106   4.328  0.3322  0.3786 -0.5867
  724THF     H412403   2.999   0.320   4.182 -1.8901  0.6249  3.4261
  724THF     H512404   3.057   0.220   4.039 -0.0674 -0.7971 -0.4637
  724THF     H612405   2.979   0.155   4.393 -0.3473  1.3504 -1.1928
  724THF     H712406   3.051  -0.002   4.362 -0.6800  0.5562 -0.1691
  724THF     C812407   3.193   0.169   4.341 -0.3903  0.5161 -0.7005
  724THF     C912408   3.199   0.257   4.211 -0.1137 -0.3989  1.2026
  724THF    H1012409   3.279   0.102   4.331 -0.0988 -1.7067 -0.1222
  724THF    H1112410   3.196   0.237   4.426 -0.8783  1.0336 -0.3370
  724THF    H1212411   3.199   0.364   4.211 -0.0960  0.0035 -0.1459
  724THF    H1312412   3.264   0.221   4.135 -0.6678  0.7064 -0.9185
  725THF     O112413   0.894   2.770   4.665  0.4147  0.7659  0.4958
  725THF     C212414   0.766   2.735   4.702  0.3219 -0.3515  0.0688
  725THF     C312415   0.986   2.744   4.773  0.7335  0.5513 -0.0371
  725THF     H412416   0.757   2.634   4.698  1.3087 -0.2334 -2.5026
  725THF     H512417   0.687   2.781   4.637 -0.0254  0.7904 -0.6005
  725THF     H612418   1.033   2.648   4.753 -1.3364  2.1751  1.5540
  725THF     H712419   1.061   2.825   4.781  0.2311 -0.1495  1.3807
  725THF     C812420   0.893   2.739   4.895 -0.7330  0.2380 -0.8370
  725THF     C912421   0.764   2.791   4.840 -0.5434  0.3518 -0.2622
  725THF    H1012422   0.931   2.803   4.973 -1.2641 -0.3622  0.6422
  725THF    H1112423   0.880   2.647   4.941  1.4660  2.4485 -1.9321
  725THF    H1212424   0.682   2.759   4.906 -0.2424 -3.8552 -0.5913
  725THF    H1312425   0.764   2.902   4.846  1.1686 -2.9024  0.4961
  726THF     O112426   0.457   4.526   0.717  0.4907 -0.0273 -0.0713
  726THF     C212427   0.599   4.507   0.725  0.5313  0.7779  0.6066
  726THF     C312428   0.417   4.652   0.769 -0.0758 -0.2339 -0.2090
  726THF     H412429   0.640   4.527   0.629  0.2307  0.9026 -0.3002
  726THF     H512430   0.625   4.402   0.738 -1.2680 -2.6480 -5.0195
  726THF     H612431   0.420   4.721   0.688  1.3269 -0.3984  0.5572
  726THF     H712432   0.314   4.653   0.807 -0.0851  1.3493  0.8386
  726THF     C812433   0.519   4.676   0.887 -0.4622  0.6076 -0.1682
  726THF     C912434   0.644   4.604   0.834  0.4364 -0.3432  0.0314
  726THF    H1012435   0.489   4.630   0.976 -1.6343 -0.0450 -0.8682
  726THF    H1112436   0.550   4.775   0.897 -1.3935  0.1621 -0.7742
  726THF    H1212437   0.707   4.687   0.792  1.2578 -0.1322  1.7998
  726THF    H1312438   0.717   4.558   0.907  0.4319  2.1717  0.1170
  727THF     O112439   4.957   5.452   4.781 -0.2560  0.1854  0.0108
  727THF     C212440   5.041   5.533   4.862  0.0129  0.3956 -0.8603
  727THF     C312441   4.821   5.487   4.817  0.5558 -0.2902 -0.7658
  727THF     H412442   5.143   5.517   4.836  2.3440  0.8962 -0.6232
  727THF     H512443   5.034   5.507   4.971 -1.6396 -0.8910  1.1038
  727THF     H612444   4.733   5.439   4.766 -1.2471 -1.9083 -1.2549
  727THF     H712445   4.822   5.453   4.927  1.7966  1.5242  2.1812
  727THF     C812446   4.827   5.633   4.808  0.6126  0.6232 -0.4320
  727THF     C912447   4.971   5.667   4.845  0.9094 -1.0753 -0.4482
  727THF    H1012448   4.763   5.674   4.888 -3.1216 -0.6070  1.1741
  727THF    H1112449   4.800   5.672   4.708 -1.4959 -0.9075  1.2703
  727THF    H1212450   5.016   5.725   4.771 -1.6821 -3.3812  1.2570
  727THF    H1312451   4.988   5.721   4.940  1.8316 -1.0284 -0.3854
  728THF     O112452   0.251   4.791   1.879 -0.2779 -0.2980  0.1667
  728THF     C212453   0.202   4.809   2.012 -0.2437  0.4864 -0.0792
  728THF     C312454   0.140   4.763   1.796  0.3224 -0.2060  0.0710
  728THF     H412455   0.257   4.885   2.060 -0.3521  0.4448  0.7988
  728THF     H512456   0.202   4.721   2.064  0.2724  1.7644  0.7737
  728THF     H612457   0.157   4.803   1.690 -2.0536  0.3871 -3.0286
  728THF     H712458   0.124   4.658   1.766  0.1448  2.5489  0.6958
  728THF     C812459   0.008   4.807   1.855 -0.4658  0.6186 -0.5937
  728THF     C912460   0.050   4.834   1.997 -0.1572 -0.2987  1.0422
  728THF    H1012461  -0.074   4.734   1.834  2.1329  2.1180  0.8729
  728THF    H1112462  -0.026   4.892   1.797 -0.6664  1.1185 -1.1880
  728THF    H1212463   0.027   4.939   2.011  2.1121  0.8813 -0.8292
  728THF    H1312464  -0.006   4.776   2.069 -0.0750  1.9526  2.3172
  729THF     O112465   4.614   2.746   1.265  0.8350  0.6682  0.6346
  729THF     C212466   4.645   2.882   1.260 -0.4394  0.1923 -0.7082
  729THF     C312467   4.537   2.720   1.149 -0.4807  0.6650 -0.7645
  729THF     H412468   4.736   2.901   1.316 -1.7699  0.6895  0.0038
  729THF     H512469   4.556   2.929   1.312 -0.1239  0.7404  0.3712
  729THF     H612470   4.530   2.610   1.127  0.8961  0.4234  0.6620
  729THF     H712471   4.434   2.761   1.153  0.3095 -1.4538 -0.7128
  729THF     C812472   4.630   2.781   1.045  0.5162 -0.0935  0.0467
  729THF     C912473   4.672   2.911   1.115  0.8248 -0.3036  0.3376
  729THF    H1012474   4.596   2.805   0.941 -0.6739  1.2283  0.2158
  729THF    H1112475   4.719   2.725   1.038 -0.8457 -0.7270  1.1106
  729THF    H1212476   4.775   2.925   1.093 -0.6421 -0.8092  1.4162
  729THF    H1312477   4.606   2.994   1.089  1.3583  0.7149 -3.0845
  730THF     O112478   0.804   2.014   3.217 -0.4096  0.6024 -0.1481
  730THF     C212479   0.852   1.903   3.148 -0.1416 -0.3367  0.7393
  730THF     C312480   0.670   2.031   3.182  0.0284 -0.5642 -0.0221
  730THF     H412481   0.888   1.826   3.221  1.4327 -1.4265  1.8186
  730THF     H512482   0.938   1.922   3.080  0.3531 -2.5778 -3.0814
  730THF     H612483   0.603   1.992   3.253 -0.9895 -0.7425 -0.5681
  730THF     H712484   0.650   2.133   3.176  2.1595  0.4182 -1.9195
  730THF     C812485   0.652   1.969   3.044 -0.2864 -0.2334  0.2902
  730THF     C912486   0.741   1.849   3.060 -0.3259 -0.0213 -0.3113
  730THF    H1012487   0.699   2.033   2.967  0.4894  1.9777  1.8317
  730THF    H1112488   0.546   1.952   3.008 -1.6721  1.9714 -1.2307
  730THF    H1212489   0.686   1.772   3.111  2.3950  0.0419  3.9729
  730THF    H1312490   0.771   1.812   2.965 -1.0934  1.1253  0.6207
  731THF     O112491   3.645   3.495   2.473 -0.6518  0.0859  0.3080
  731THF     C212492   3.790   3.518   2.453  0.3413 -0.7996 -0.5071
  731THF     C312493   3.608   3.391   2.388 -0.0995  0.1661 -0.2349
  731THF     H412494   3.831   3.560   2.541  1.5054 -1.3096  0.1573
  731THF     H512495   3.813   3.587   2.374 -1.3323  0.6180 -0.1358
  731THF     H612496   3.539   3.327   2.438  1.5154 -0.9006  1.5580
  731THF     H712497   3.550   3.417   2.290 -1.4245 -0.1615  1.3893
  731THF     C812498   3.741   3.313   2.352 -0.0931 -0.4212  0.0314
  731THF     C912499   3.852   3.387   2.430  0.6175  0.2261 -0.2943
  731THF    H1012500   3.757   3.311   2.238  0.0840 -1.9769  0.0530
  731THF    H1112501   3.734   3.207   2.375  2.4365 -2.0862  1.9343
  731THF    H1212502   3.882   3.338   2.525  2.4764  1.2376 -1.2556
  731THF    H1312503   3.943   3.384   2.369 -0.1517 -4.2507 -1.4793
  732THF     O112504   1.229   2.269   3.017 -0.6561 -0.2287 -0.5687
  732THF     C212505   1.214   2.144   3.075 -0.7449  0.1193  0.3383
  732THF     C312506   1.184   2.368   3.115 -0.1342 -0.4297  0.3345
  732THF     H412507   1.278   2.070   3.025  0.1078  1.7830 -1.1585
  732THF     H512508   1.109   2.117   3.073  0.6683 -4.1806  0.1682
  732THF     H612509   1.224   2.464   3.081  1.3193  2.3288 -1.3386
  732THF     H712510   1.074   2.368   3.115 -0.8153 -0.9389  1.0912
  732THF     C812511   1.261   2.315   3.236 -0.6675  0.0585  0.4525
  732THF     C912512   1.258   2.163   3.218 -0.0636  0.0828 -0.3504
  732THF    H1012513   1.209   2.331   3.327 -2.8815  0.1414 -0.1306
  732THF    H1112514   1.365   2.351   3.241  1.7027  2.6631 -1.4144
  732THF    H1212515   1.356   2.122   3.234 -0.5317 -0.7907 -1.1626
  732THF    H1312516   1.195   2.102   3.289 -2.0354  2.9238  1.8623
  733THF     O112517   4.964   4.205   5.299 -0.4981 -0.0666 -0.0818
  733THF     C212518   5.030   4.245   5.176  0.0963 -0.0575  0.7601
  733THF     C312519   4.851   4.288   5.321  0.4338  0.2519 -0.1980
  733THF     H412520   5.056   4.167   5.104  1.1748 -0.2297 -0.2401
  733THF     H512521   5.130   4.285   5.206  0.2060  3.3360  0.7625
  733THF     H612522   4.762   4.251   5.266 -0.7865  0.0582 -1.4798
  733THF     H712523   4.824   4.293   5.431  1.6824  1.2289  0.8672
  733THF     C812524   4.887   4.411   5.241 -0.3628 -0.5384 -0.4864
  733THF     C912525   4.954   4.359   5.117  0.3769  0.3158  0.4411
  733THF    H1012526   4.954   4.469   5.306  0.1221 -0.2413 -1.6982
  733THF    H1112527   4.793   4.465   5.212 -2.0781 -2.3662  1.6272
  733THF    H1212528   4.877   4.315   5.042 -2.9105 -0.9128  0.7010
  733THF    H1312529   5.024   4.426   5.061  1.2668  3.3972  1.7197
  734THF     O112530   4.144   0.443   5.042  0.4262 -0.1118 -0.1462
  734THF     C212531   4.114   0.551   4.958  0.2573 -0.2319  0.3907
  734THF     C312532   4.252   0.361   4.990 -0.3995 -0.4988 -0.3738
  734THF     H412533   4.147   0.644   5.002 -0.3906  1.4463 -2.2859
  734THF     H512534   4.006   0.571   4.944 -2.6687 -1.0240 -1.2770
  734THF     H612535   4.322   0.322   5.066 -0.0646  0.7838  0.6558
  734THF     H712536   4.208   0.274   4.943 -0.9816  1.2156 -0.5019
  734THF     C812537   4.312   0.450   4.881  0.6105 -0.0700  0.2129
  734THF     C912538   4.184   0.512   4.832  0.4597  0.3247 -0.1197
  734THF    H1012539   4.373   0.393   4.809  2.8928  0.6904 -0.7705
  734THF    H1112540   4.374   0.532   4.922  0.3174  0.1839  0.0017
  734THF    H1212541   4.200   0.600   4.767  2.0892  0.3977 -0.3420
  734THF    H1312542   4.111   0.455   4.791  0.9897  1.4869  0.7806
  735THF     O112543   2.158   4.965   3.020  0.3902 -0.7614  0.1433
  735THF     C212544   2.206   4.832   2.998 -0.5784  0.3552  0.8712
  735THF     C312545   2.263   5.048   3.067 -0.2534  0.6006 -0.0367
  735THF     H412546   2.198   4.807   2.894  0.4638  0.8571 -1.1025
  735THF     H512547   2.146   4.756   3.051 -0.9147 -0.2261 -0.5243
  735THF     H612548   2.321   5.077   2.979 -1.2640  0.0386 -0.5182
  735THF     H712549   2.224   5.134   3.122  0.3002 -3.7799  1.1385
  735THF     C812550   2.332   4.937   3.155 -0.9468 -0.6712 -0.2903
  735THF     C912551   2.350   4.831   3.056 -0.7727  0.3461 -0.4591
  735THF    H1012552   2.274   4.904   3.244  0.3574  0.5511 -1.2640
  735THF    H1112553   2.429   4.968   3.195 -4.8790  3.1729  0.5011
  735THF    H1212554   2.425   4.868   2.987 -0.8443  1.3018 -1.1674
  735THF    H1312555   2.389   4.739   3.104  0.4145 -0.8879  1.1066
  736THF     O112556   1.305   4.886   2.759 -0.1348 -0.0001 -0.0793
  736THF     C212557   1.428   4.966   2.776  0.4243  0.3365  0.2640
  736THF     C312558   1.221   4.951   2.665  0.3317 -0.6572 -0.3236
  736THF     H412559   1.507   4.938   2.709  1.0398  2.1778  1.3563
  736THF     H512560   1.460   4.956   2.882  0.1795  0.9909  1.9764
  736THF     H612561   1.281   4.932   2.571  2.0471 -1.3212  1.6496
  736THF     H712562   1.119   4.909   2.652 -0.0710  0.3766  1.2408
  736THF     C812563   1.235   5.104   2.693 -0.3700  0.4272  0.5225
  736THF     C912564   1.375   5.105   2.758  0.2515 -0.2379 -0.2914
  736THF    H1012565   1.150   5.136   2.753 -1.4136 -0.4798  0.2031
  736THF    H1112566   1.230   5.158   2.606  1.7123  1.3234 -0.8723
  736THF    H1212567   1.427   5.149   2.664  0.6999 -0.4723 -3.5851
  736THF    H1312568   1.409   5.182   2.826  0.3029  3.4100  1.1808
  737THF     O112569   1.129   5.122   3.177  0.6065 -0.5678  0.4108
  737THF     C212570   1.233   5.127   3.083 -0.2647  0.8630  0.2400
  737THF     C312571   1.183   5.055   3.294 -0.0504  0.0234  0.3212
  737THF     H412572   1.215   5.198   3.008  0.0564 -0.6134  1.0092
  737THF     H512573   1.237   5.029   3.033  2.0795  0.8671 -1.7572
  737THF     H612574   1.157   5.097   3.383 -0.5370  2.7071  0.5542
  737THF     H712575   1.146   4.953   3.278  1.5025 -0.9678 -2.4328
  737THF     C812576   1.333   5.042   3.273  0.3047  0.1408  0.7788
  737THF     C912577   1.357   5.148   3.168  0.0907  1.3478 -0.2828
  737THF    H1012578   1.360   4.944   3.222 -0.5355  1.4135 -0.7573
  737THF    H1112579   1.392   5.054   3.366 -0.4895  1.5613 -0.5405
  737THF    H1212580   1.364   5.243   3.208  0.1260  0.1395  0.2181
  737THF    H1312581   1.446   5.126   3.106  1.8971 -1.2604 -2.5131
  738THF     O112582   4.930   1.524   0.837  0.0283 -0.4342  0.4271
  738THF     C212583   4.869   1.646   0.878 -0.5033  0.1336 -0.5204
  738THF     C312584   4.876   1.415   0.907 -0.3035  0.4686  0.3816
  738THF     H412585   4.892   1.723   0.801 -0.3436  2.0432  1.0202
  738THF     H512586   4.917   1.665   0.980 -0.1098 -0.7995  1.3943
  738THF     H612587   4.904   1.317   0.877  1.2341 -0.0717 -0.0191
  738THF     H712588   4.908   1.433   1.007 -1.1316  0.0471 -0.3744
  738THF     C812589   4.722   1.446   0.891 -0.4556 -0.4064 -0.3082
  738THF     C912590   4.719   1.604   0.893 -0.2513  0.4966  0.1091
  738THF    H1012591   4.682   1.398   0.975  0.6186 -1.9182 -3.3240
  738THF    H1112592   4.680   1.394   0.801  1.4211 -0.3788  0.2213
  738THF    H1212593   4.660   1.640   0.814  1.6988 -1.4708  0.5730
  738THF    H1312594   4.691   1.648   0.987  0.5951  2.2743 -1.4462
  739THF     O112595   1.701   4.376   0.772 -0.2680 -0.2817 -0.0600
  739THF     C212596   1.638   4.454   0.667  0.3425 -0.6262 -0.2262
  739THF     C312597   1.657   4.244   0.744 -0.1128 -0.1237 -0.1361
  739THF     H412598   1.692   4.430   0.576 -1.4382  0.2515  0.3749
  739THF     H512599   1.644   4.558   0.678  0.0090 -3.4239  1.6097
  739THF     H612600   1.694   4.197   0.651 -0.2590 -0.7232  1.8799
  739THF     H712601   1.675   4.168   0.824 -0.8145 -1.9720  1.1986
  739THF     C812602   1.504   4.267   0.732  0.8931 -0.1702  0.3155
  739THF     C912603   1.499   4.403   0.662  0.3000 -0.2914 -0.0562
  739THF    H1012604   1.454   4.278   0.834 -1.1217  1.0029 -1.3037
  739THF    H1112605   1.460   4.183   0.682  1.5229 -1.5973 -0.8608
  739THF    H1212606   1.460   4.404   0.565  1.3790 -0.2543 -0.5715
  739THF    H1312607   1.428   4.461   0.725 -0.7248 -0.8562 -1.4207
  740THF     O112608   3.195   5.127   4.556 -0.1242  0.0249 -0.2049
  740THF     C212609   3.190   5.159   4.697  0.1721  0.0495 -0.2210
  740THF     C312610   3.219   4.988   4.543 -0.3782  0.3980  0.3152
  740THF     H412611   3.088   5.165   4.743 -3.0272  2.0306  0.8250
  740THF     H512612   3.235   5.257   4.712 -1.0717 -0.4437 -1.6825
  740THF     H612613   3.155   4.945   4.469 -0.6647  0.8791  0.2745
  740THF     H712614   3.312   4.966   4.497 -1.0792 -0.0950 -1.1833
  740THF     C812615   3.217   4.920   4.675  0.1409 -0.4198 -0.2058
  740THF     C912616   3.257   5.037   4.765 -0.2700 -0.0042 -0.3107
  740THF    H1012617   3.285   4.831   4.675  0.0990 -0.4501  2.2960
  740THF    H1112618   3.118   4.896   4.714 -0.0854 -0.2562 -0.7506
  740THF    H1212619   3.223   5.020   4.861  1.9259 -0.5903 -3.3431
  740THF    H1312620   3.367   5.034   4.768 -1.4992  1.2090 -0.5922
  741THF     O112621   3.126   0.251   1.243 -0.1505  0.3909 -0.1442
  741THF     C212622   3.252   0.176   1.256 -0.4098  0.6128  0.2648
  741THF     C312623   3.037   0.173   1.166 -0.0036  0.0756 -1.0993
  741THF     H412624   3.270   0.149   1.356  2.9825 -1.6132 -1.4668
  741THF     H512625   3.317   0.261   1.234 -2.0319  1.9383 -1.8215
  741THF     H612626   2.987   0.090   1.221  0.0564 -1.0008 -1.6751
  741THF     H712627   2.952   0.231   1.119  0.3762 -1.1296  0.4821
  741THF     C812628   3.129   0.099   1.067  0.4491  0.3545  0.0198
  741THF     C912629   3.255   0.069   1.143  0.4859  0.3277  0.2978
  741THF    H1012630   3.157   0.157   0.985  0.3883  1.5292  2.0963
  741THF    H1112631   3.081   0.015   1.023 -0.4800  1.2708 -1.0839
  741THF    H1212632   3.244  -0.034   1.183 -0.4558  0.7455 -2.5692
  741THF    H1312633   3.330   0.065   1.070  1.5288 -0.8424 -1.5814
  742THF     O112634   5.022   2.540   2.796  0.5706  0.4682  0.1093
  742THF     C212635   5.111   2.556   2.685  0.3714 -0.1915 -0.9677
  742THF     C312636   4.924   2.644   2.800  0.3375  0.1477  0.4393
  742THF     H412637   5.132   2.462   2.640  0.5507 -1.7749  0.0246
  742THF     H512638   5.196   2.613   2.708 -0.1103  1.1745  1.8197
  742THF     H612639   4.833   2.618   2.859  2.6408 -1.0663 -2.6237
  742THF     H712640   4.970   2.726   2.854  1.7936 -3.1965 -0.7502
  742THF     C812641   4.900   2.677   2.665  0.5556 -0.2649 -0.4401
  742THF     C912642   5.031   2.644   2.592  0.2736  0.7873  0.1287
  742THF    H1012643   4.864   2.776   2.642 -0.3021  3.5462 -2.6855
  742THF    H1112644   4.822   2.600   2.638  1.2078 -0.7001  0.5998
  742THF    H1212645   5.008   2.607   2.495  0.9277 -0.8670  1.8668
  742THF    H1312646   5.082   2.733   2.573 -0.2863 -1.7293 -0.4131
  743THF     O112647   2.196   0.213   4.070 -0.2892 -0.3882 -0.6514
  743THF     C212648   2.242   0.105   4.160  0.4098 -0.1359 -0.4858
  743THF     C312649   2.151   0.151   3.948  0.7879  0.3494  0.2911
  743THF     H412650   2.197   0.123   4.260  0.3796  0.6697  0.3936
  743THF     H512651   2.344   0.098   4.160  1.5584 -0.0268  0.4877
  743THF     H612652   2.050   0.181   3.923  1.5598  1.4966 -0.4243
  743THF     H712653   2.205   0.192   3.872  1.7073  0.0516  1.0386
  743THF     C812654   2.194   0.007   3.957  0.3170 -0.3700  0.1511
  743THF     C912655   2.175  -0.020   4.102  0.3772  0.0614  0.0739
  743THF    H1012656   2.307   0.008   3.933  0.3187 -1.8843  0.3127
  743THF    H1112657   2.131  -0.046   3.891  2.5606  2.4964  1.2478
  743THF    H1212658   2.072  -0.013   4.137 -1.9566 -1.2815  0.1959
  743THF    H1312659   2.231  -0.110   4.125 -2.9881 -0.2245  1.7953
  744THF     O112660   2.720   1.025   4.727  0.0540  0.4349  0.1236
  744THF     C212661   2.752   1.167   4.730  0.2191 -0.1382 -0.7714
  744THF     C312662   2.757   0.970   4.854  0.5247  0.0951  0.5523
  744THF     H412663   2.656   1.215   4.748 -0.0292 -0.8704  2.2167
  744THF     H512664   2.782   1.208   4.634 -1.4063  2.5019 -0.7859
  744THF     H612665   2.686   0.978   4.928  2.2761 -2.6181  0.3365
  744THF     H712666   2.775   0.863   4.847  0.2571  1.8488 -2.7734
  744THF     C812667   2.880   1.047   4.899 -0.5650 -0.1045 -0.2136
  744THF     C912668   2.842   1.186   4.851 -0.1834  0.0952  0.2751
  744THF    H1012669   2.971   1.014   4.846 -0.0498 -0.2178 -1.9306
  744THF    H1112670   2.901   1.032   5.005  2.7867 -1.2091  0.3594
  744THF    H1212671   2.801   1.255   4.929  1.1488 -1.7049  0.9484
  744THF    H1312672   2.937   1.232   4.828 -0.8988 -1.7748 -0.2178
  745THF     O112673   3.261   3.698   3.038 -0.4758 -0.0933 -0.3655
  745THF     C212674   3.246   3.551   3.028 -0.6556 -0.3235  0.1679
  745THF     C312675   3.144   3.753   3.094  0.0581 -0.0694 -0.3478
  745THF     H412676   3.259   3.499   3.123  0.6862  0.8459 -2.1697
  745THF     H512677   3.315   3.511   2.959  0.3658 -1.8884 -1.8293
  745THF     H612678   3.164   3.758   3.201  0.6873 -1.7901 -1.3883
  745THF     H712679   3.148   3.850   3.052 -0.3681 -1.8605 -0.3167
  745THF     C812680   3.032   3.657   3.054  0.3248  0.0504  0.1332
  745THF     C912681   3.102   3.538   2.984 -0.3806  0.2397 -0.7039
  745THF    H1012682   2.950   3.702   2.983 -0.9747  2.4451 -2.2804
  745THF    H1112683   2.980   3.604   3.132 -0.1951 -1.7277 -0.9024
  745THF    H1212684   3.059   3.432   2.994 -1.0276 -1.2309  0.6197
  745THF    H1312685   3.098   3.552   2.879 -0.8697 -0.9562 -0.3005
  746THF     O112686   1.545   0.791   5.168 -0.1742  0.2188 -0.2172
  746THF     C212687   1.512   0.853   5.292 -0.3704  0.0119 -0.4312
  746THF     C312688   1.607   0.890   5.084  0.5185  0.5167  0.3348
  746THF     H412689   1.610   0.847   5.342 -0.4347 -2.9958 -0.4525
  746THF     H512690   1.448   0.794   5.355  0.5173 -0.3306 -1.2913
  746THF     H612691   1.710   0.901   5.119 -0.0009  0.5689 -0.7736
  746THF     H712692   1.614   0.877   4.980 -1.5934  0.2517  0.3180
  746THF     C812693   1.516   1.011   5.119 -0.1808 -0.2914 -0.0461
  746THF     C912694   1.468   0.993   5.259  0.1914 -0.0525  0.5064
  746THF    H1012695   1.431   1.009   5.047 -1.4682 -0.1510  0.0313
  746THF    H1112696   1.569   1.098   5.094 -1.8110 -1.6417  0.6427
  746THF    H1212697   1.518   1.055   5.327 -0.2530 -0.5486 -0.0473
  746THF    H1312698   1.356   1.007   5.273 -1.9316  0.6703  4.5328
  747THF     O112699   5.281   0.696   3.094 -0.0394  0.8300  0.9876
  747THF     C212700   5.232   0.567   3.123  0.2196 -0.0947 -0.1294
  747THF     C312701   5.187   0.770   3.029  0.2826 -0.1495  0.2011
  747THF     H412702   5.287   0.512   3.190 -2.1917 -3.9504 -2.4226
  747THF     H512703   5.230   0.512   3.029  1.3451 -0.7808  3.1711
  747THF     H612704   5.216   0.871   3.036 -2.9530 -4.3463 -0.8337
  747THF     H712705   5.176   0.741   2.924  2.0944  1.3175 -2.1649
  747THF     C812706   5.063   0.741   3.123 -0.2412 -0.0950 -0.4462
  747THF     C912707   5.092   0.603   3.184  0.0189  0.0134 -0.6638
  747THF    H1012708   4.967   0.753   3.076  0.5517  0.9442 -0.1831
  747THF    H1112709   5.064   0.806   3.210 -0.4250  1.5676 -0.2246
  747THF    H1212710   5.079   0.606   3.293 -1.4932 -1.8327  0.1429
  747THF    H1312711   5.007   0.546   3.147 -1.6210 -0.7587 -0.3771
  748THF     O112712   0.641   5.280   1.963 -0.3518  0.3009 -0.5353
  748THF     C212713   0.700   5.173   2.039  0.2965  0.1665  0.2753
  748THF     C312714   0.638   5.239   1.825  0.4237 -0.3699 -0.0484
  748THF     H412715   0.628   5.123   2.104  1.4181 -0.1896 -1.6275
  748THF     H512716   0.770   5.211   2.113  0.4124  0.1193 -2.5564
  748THF     H612717   0.549   5.172   1.821 -0.7876 -0.7185  0.9311
  748THF     H712718   0.626   5.311   1.746  1.4801  1.7961  0.6998
  748THF     C812719   0.765   5.157   1.812  0.7419 -0.0345  0.1144
  748THF     C912720   0.764   5.076   1.941  0.3850 -0.1626 -0.3125
  748THF    H1012721   0.843   5.231   1.812  1.7318  1.2925  0.6913
  748THF    H1112722   0.768   5.106   1.716  0.0200 -0.3740  0.6809
  748THF    H1212723   0.685   4.997   1.943  2.3868  1.3849 -0.3917
  748THF    H1312724   0.858   5.029   1.967 -1.4139 -0.5827 -0.4149
  749THF     O112725   1.489   0.356   0.310  0.2714 -0.3690  0.2917
  749THF     C212726   1.554   0.330   0.432  0.1475 -0.0866  0.0677
  749THF     C312727   1.576   0.444   0.237  0.2391  0.6023 -0.1343
  749THF     H412728   1.605   0.239   0.428  0.1494  1.9365  1.8178
  749THF     H512729   1.488   0.314   0.517  1.8823  0.0162  1.0353
  749THF     H612730   1.666   0.399   0.200  0.5218  1.2681  3.3752
  749THF     H712731   1.532   0.485   0.148 -1.9489 -1.6816  1.2905
  749THF     C812732   1.623   0.545   0.342  0.2381  0.6174 -1.1790
  749THF     C912733   1.654   0.451   0.456 -0.5121 -0.8005  0.0372
  749THF    H1012734   1.545   0.623   0.363 -1.1403  0.4019 -0.7024
  749THF    H1112735   1.712   0.608   0.305 -0.1782 -1.9009 -0.2860
  749THF    H1212736   1.756   0.412   0.439 -0.6941 -0.5697 -1.1994
  749THF    H1312737   1.649   0.506   0.545  1.4778  0.4137 -0.8012
  750THF     O112738   2.860   3.343   2.802 -0.5920  0.2831 -0.0698
  750THF     C212739   2.725   3.323   2.837 -0.3335  0.5870  0.1027
  750THF     C312740   2.876   3.418   2.687  0.1188  0.4458  0.4790
  750THF     H412741   2.723   3.285   2.941  0.6710 -0.2640  0.7301
  750THF     H512742   2.675   3.246   2.767  3.0849 -1.4787  0.4630
  750THF     H612743   2.963   3.483   2.693  2.3432  0.8095 -0.7074
  750THF     H712744   2.900   3.352   2.601  1.2561 -2.2334 -0.1118
  750THF     C812745   2.740   3.488   2.668 -0.0613 -0.6409 -0.7064
  750THF     C912746   2.676   3.469   2.804 -0.5424  0.5896  0.0398
  750THF    H1012747   2.672   3.445   2.597 -0.4282 -1.1930  1.6507
  750THF    H1112748   2.757   3.591   2.633 -0.5282  1.6786 -0.8727
  750THF    H1212749   2.718   3.537   2.873 -1.4833 -1.5410  0.1800
  750THF    H1312750   2.568   3.478   2.807  1.8057 -2.2222  0.6671
  751THF     O112751   0.357   1.359   5.068 -0.0215 -0.1151 -0.4830
  751THF     C212752   0.244   1.322   4.991  0.0878  0.4416  0.0410
  751THF     C312753   0.473   1.371   4.988 -0.0868  0.3125 -0.3157
  751THF     H412754   0.187   1.416   4.964 -0.4336 -1.7653  1.4894
  751THF     H512755   0.180   1.252   5.037  1.7030  0.5764  3.2228
  751THF     H612756   0.463   1.464   4.932  1.0608  0.0865  4.5657
  751THF     H712757   0.564   1.382   5.052 -0.7050  1.2393 -0.8687
  751THF     C812758   0.460   1.241   4.910 -0.0620  0.6254  0.2351
  751THF     C912759   0.306   1.243   4.877 -0.1456  0.0683  1.4246
  751THF    H1012760   0.496   1.150   4.952  4.0888  1.5293 -1.1471
  751THF    H1112761   0.512   1.255   4.817  0.2157 -1.7197  0.3605
  751THF    H1212762   0.298   1.311   4.789 -4.0787  1.6838  2.2753
  751THF    H1312763   0.268   1.145   4.850 -0.7359  1.2646  1.3958
  752THF     O112764   2.120   0.984   3.800 -0.1902 -0.1480 -0.0385
  752THF     C212765   2.115   1.093   3.722  0.2014 -0.2422  0.6658
  752THF     C312766   2.000   0.972   3.870 -0.3642 -0.2877 -0.6983
  752THF     H412767   2.094   1.058   3.620  0.0757 -2.0779 -0.6671
  752THF     H512768   2.209   1.140   3.723  0.8603  1.4553 -1.7845
  752THF     H612769   1.953   0.882   3.846 -0.9788  3.0149 -1.3129
  752THF     H712770   2.018   0.973   3.977  0.6974  2.8484  1.1594
  752THF     C812771   1.907   1.077   3.828  0.0647  0.2590 -0.3549
  752THF     C912772   2.003   1.184   3.787 -0.7055  0.2230  0.2118
  752THF    H1012773   1.837   1.109   3.902  0.3349  0.3779  0.0175
  752THF    H1112774   1.860   1.055   3.736  0.4508  0.0274 -2.0837
  752THF    H1212775   1.955   1.259   3.724 -1.1084  1.2427 -0.5140
  752THF    H1312776   2.048   1.242   3.864 -1.1020  0.3964 -0.9046
  753THF     O112777   4.500   1.155   1.507  0.0223 -0.2905 -0.1849
  753THF     C212778   4.432   1.218   1.399  0.5349 -0.4189 -0.2609
  753THF     C312779   4.410   1.065   1.574 -0.5225 -0.5055 -0.0474
  753THF     H412780   4.467   1.185   1.302 -1.8844  0.8449  0.8111
  753THF     H512781   4.430   1.327   1.412 -2.5797 -3.2913 -1.3121
  753THF     H612782   4.457   0.971   1.599 -0.0801  0.8977 -2.8547
  753THF     H712783   4.377   1.103   1.672  1.4116 -1.2808  0.1789
  753THF     C812784   4.278   1.058   1.481  0.5936 -0.1288 -0.3871
  753THF     C912785   4.278   1.186   1.408 -0.0486 -0.4886  0.6561
  753THF    H1012786   4.182   1.049   1.527 -0.2973  1.7944 -1.5256
  753THF    H1112787   4.287   0.967   1.418 -0.4181  0.4149  2.3460
  753THF    H1212788   4.238   1.169   1.309  0.0939 -0.9284 -0.2318
  753THF    H1312789   4.238   1.262   1.467 -0.3437 -5.0719  2.0317
  754THF     O112790   4.556   0.014   5.118 -0.4929  0.0770  0.4963
  754THF     C212791   4.531  -0.095   5.197 -0.1259  0.1818  0.3431
  754THF     C312792   4.487  -0.011   4.993  0.1193 -0.3905 -0.3092
  754THF     H412793   4.419  -0.093   5.216 -2.3598  1.5961  1.8964
  754THF     H512794   4.589  -0.084   5.293  0.8960  2.2495  1.0410
  754THF     H612795   4.373  -0.003   5.006 -1.8893  1.3118 -2.5309
  754THF     H712796   4.513   0.054   4.909 -2.0616  1.6360 -1.5069
  754THF     C812797   4.508  -0.159   4.969  0.1676 -0.6130  0.1782
  754THF     C912798   4.565  -0.208   5.100 -0.8147 -0.1849 -0.3675
  754THF    H1012799   4.577  -0.171   4.886  1.3029 -1.7111 -0.9350
  754THF    H1112800   4.415  -0.206   4.939  0.6976  0.5405 -0.3252
  754THF    H1212801   4.522  -0.302   5.135 -2.3858  1.6938 -1.6340
  754THF    H1312802   4.675  -0.232   5.089 -0.0993 -2.1242 -2.1803
  755THF     O112803   4.547   2.211   0.198  0.2101 -0.3318  0.8421
  755THF     C212804   4.618   2.157   0.097  0.5443  0.0406  0.0632
  755THF     C312805   4.428   2.265   0.150 -0.5427 -0.5398 -0.3614
  755THF     H412806   4.577   2.057   0.088  0.5697 -0.5348 -1.3519
  755THF     H512807   4.716   2.154   0.132 -3.7496  0.0767 -0.4174
  755THF     H612808   4.343   2.203   0.165  1.6992  1.4638  3.4219
  755THF     H712809   4.402   2.362   0.205  0.3231  1.8854  1.4248
  755THF     C812810   4.456   2.293  -0.002 -0.4665 -0.2144 -0.2904
  755THF     C912811   4.593   2.235  -0.029 -0.2886 -0.1816 -0.4830
  755THF    H1012812   4.462   2.400  -0.016  1.3655 -1.9522 -0.5335
  755THF    H1112813   4.370   2.263  -0.068 -2.5081  0.4932  1.8334
  755THF    H1212814   4.585   2.175  -0.118  1.3436  1.3550 -1.5827
  755THF    H1312815   4.674   2.309  -0.046  0.7820 -2.6759  1.4859
  756THF     O112816   1.533   5.128   2.247 -0.6320  0.2778  0.1237
  756THF     C212817   1.449   5.056   2.330  0.5999 -0.7817 -0.2376
  756THF     C312818   1.668   5.088   2.278  0.0649 -0.1241  0.4178
  756THF     H412819   1.352   5.033   2.290  2.1160 -0.5779 -0.8539
  756THF     H512820   1.435   5.115   2.422  0.1122  1.8581  2.4465
  756THF     H612821   1.734   5.121   2.198 -1.3377  2.2963  3.4068
  756THF     H712822   1.698   5.127   2.373  2.8760  0.9186  0.2790
  756THF     C812823   1.651   4.939   2.284  0.9707 -0.2965  0.6181
  756THF     C912824   1.525   4.930   2.366 -0.1490  0.0599  0.3683
  756THF    H1012825   1.739   4.905   2.341  0.4314  0.5005 -1.4584
  756THF    H1112826   1.654   4.896   2.184  0.1586 -0.9157  0.4240
  756THF    H1212827   1.462   4.850   2.338 -1.6751 -0.5973  0.9171
  756THF    H1312828   1.555   4.909   2.471 -1.2569 -0.1931  2.4676
  757THF     O112829   5.467   5.135   5.221  0.6220 -0.0339 -0.1299
  757THF     C212830   5.330   5.160   5.182 -0.1200  0.5733 -0.8751
  757THF     C312831   5.535   5.254   5.203 -0.9530 -0.1992 -0.2372
  757THF     H412832   5.281   5.220   5.265 -0.7911  1.3893 -1.1956
  757THF     H512833   5.276   5.062   5.155  3.2349 -0.5691 -2.1932
  757THF     H612834   5.506   5.318   5.281 -2.8022 -4.0382 -0.9524
  757THF     H712835   5.639   5.241   5.197 -0.6777  0.0687 -2.2392
  757THF     C812836   5.471   5.308   5.071 -0.2658 -0.7643  0.1682
  757THF     C912837   5.336   5.242   5.054 -0.5453  1.0500 -0.4104
  757THF    H1012838   5.538   5.279   4.990 -1.8267 -0.1232  0.0235
  757THF    H1112839   5.462   5.415   5.079 -1.0588  2.2932  0.9886
  757THF    H1212840   5.244   5.305   5.046 -0.8697 -0.8331 -0.9838
  757THF    H1312841   5.339   5.176   4.967  1.2510 -0.1028  1.2853
  758THF     O112842   0.144   0.757   5.321 -0.2788 -0.2013 -0.8781
  758THF     C212843   0.026   0.738   5.244 -0.4668 -0.7427  0.5537
  758THF     C312844   0.245   0.828   5.251 -0.5538  0.3736 -0.1193
  758THF     H412845  -0.068   0.744   5.292  3.9346 -0.6131  0.4774
  758THF     H512846   0.025   0.641   5.191 -2.1791  1.5080  2.5651
  758THF     H612847   0.266   0.916   5.305 -0.5185 -1.0527 -1.5682
  758THF     H712848   0.332   0.770   5.252 -3.4135  1.2713 -0.9773
  758THF     C812849   0.185   0.856   5.115  0.5445 -0.0007 -0.9646
  758THF     C912850   0.034   0.857   5.140 -0.3400  0.6649  1.2190
  758THF    H1012851   0.209   0.774   5.046 -0.3947  0.3644  0.3198
  758THF    H1112852   0.235   0.943   5.076  0.8909 -0.3393 -0.1981
  758THF    H1212853   0.006   0.948   5.192 -3.2521  1.8175  0.9411
  758THF    H1312854  -0.029   0.846   5.044  1.5952 -1.3498 -0.6406
  759THF     O112855   0.730   0.299   1.799  0.0015  0.1896  0.0806
  759THF     C212856   0.813   0.205   1.861  0.3508  0.1525 -0.0937
  759THF     C312857   0.607   0.238   1.772 -0.7887 -0.6471  0.5867
  759THF     H412858   0.809   0.209   1.972  2.2083  1.1746  2.6992
  759THF     H512859   0.906   0.229   1.812 -0.7942  3.1081  1.0061
  759THF     H612860   0.539   0.236   1.854 -0.5173  2.9598  1.2883
  759THF     H712861   0.563   0.294   1.690  1.6091  1.7826  2.5274
  759THF     C812862   0.635   0.090   1.749  0.1517  0.6546 -0.2249
  759THF     C912863   0.776   0.066   1.813  0.7538 -0.2701 -0.8607
  759THF    H1012864   0.638   0.061   1.643 -0.2494  0.4403 -1.1457
  759THF    H1112865   0.548   0.024   1.791  1.0307 -1.8697  1.4641
  759THF    H1212866   0.769  -0.004   1.898  1.2550 -0.0193 -0.2899
  759THF    H1312867   0.851   0.037   1.738 -2.6885 -1.9865  2.2690
  760THF     O112868   2.273   2.227   2.097  0.4357 -0.4425  0.0052
  760THF     C212869   2.232   2.296   2.213  0.0616  0.3212  0.0341
  760THF     C312870   2.158   2.236   2.002  0.5697  0.2186 -0.3330
  760THF     H412871   2.304   2.346   2.277 -1.2581  1.8086  2.3686
  760THF     H512872   2.186   2.213   2.268  1.4300  1.5754 -0.6006
  760THF     H612873   2.193   2.293   1.912 -1.7056  1.5357  1.1465
  760THF     H712874   2.127   2.137   1.975  2.0170 -1.1764  0.1800
  760THF     C812875   2.051   2.302   2.077  0.8677 -0.5496 -0.2157
  760THF     C912876   2.120   2.396   2.183 -0.4170  0.0600  0.2760
  760THF    H1012877   1.975   2.233   2.106  1.7181  0.2130  2.2837
  760THF    H1112878   2.000   2.356   1.999 -1.9121 -0.2482 -0.2624
  760THF    H1212879   2.149   2.496   2.151 -0.0374  0.1676  0.2252
  760THF    H1312880   2.065   2.415   2.270  0.5430 -0.9185 -0.0250
  761THF     O112881   1.002   2.826   2.615 -0.3448  0.0771  0.4508
  761THF     C212882   0.900   2.771   2.701  0.9635 -1.3111  0.1274
  761THF     C312883   1.021   2.738   2.511 -0.1622 -0.3380 -0.5856
  761THF     H412884   0.806   2.810   2.653 -1.0685  0.3871  0.4382
  761THF     H512885   0.904   2.802   2.808  1.0454  1.7613  0.3570
  761THF     H612886   0.962   2.759   2.420 -2.7331  2.1572  0.5433
  761THF     H712887   1.127   2.737   2.479  1.4475  0.5945 -1.8887
  761THF     C812888   0.980   2.601   2.563  0.1457 -0.2730 -0.4457
  761THF     C912889   0.931   2.615   2.698  0.1983 -0.7306 -0.2357
  761THF    H1012890   1.075   2.542   2.563 -0.3292  0.3565 -1.3243
  761THF    H1112891   0.906   2.545   2.502 -0.1536 -1.8328 -1.6431
  761THF    H1212892   0.850   2.567   2.735  1.2366  0.7769 -0.2630
  761THF    H1312893   1.019   2.604   2.766  3.0765 -0.5473 -2.7952
  762THF     O112894   5.018   2.644   4.938  0.0788 -0.1659  0.3500
  762THF     C212895   5.116   2.735   4.984 -0.2460  0.2719  0.4653
  762THF     C312896   4.909   2.718   4.888  0.4944 -0.2938 -0.0425
  762THF     H412897   5.216   2.693   4.968 -0.5356 -1.5271  3.4226
  762THF     H512898   5.095   2.753   5.083  0.8915 -1.3069 -0.0454
  762THF     H612899   4.857   2.664   4.805  0.6702 -1.5379 -0.7259
  762THF     H712900   4.838   2.735   4.963  1.7299  0.2082  1.3729
  762THF     C812901   4.966   2.848   4.832 -0.3375  0.5222 -0.6257
  762THF     C912902   5.103   2.866   4.906  0.5881 -0.3477  0.2319
  762THF    H1012903   4.891   2.923   4.850  0.8141 -2.9662  1.3099
  762THF    H1112904   4.984   2.833   4.728  1.2655 -0.4323 -1.4695
  762THF    H1212905   5.185   2.882   4.844 -2.8727 -2.9178  2.7449
  762THF    H1312906   5.100   2.956   4.971  0.0740 -0.2868 -1.0757
  763THF     O112907   1.078   0.291   1.151 -0.2525  0.4897 -0.3271
  763THF     C212908   1.149   0.279   1.274 -0.5137  0.1712 -0.1394
  763THF     C312909   1.103   0.181   1.067 -0.6652 -0.7937 -0.4683
  763THF     H412910   1.087   0.222   1.348  0.9798  0.4838 -1.0442
  763THF     H512911   1.166   0.375   1.317 -0.8639 -2.3894  1.1741
  763THF     H612912   1.031   0.109   1.096 -1.0683  1.3936  0.5749
  763THF     H712913   1.085   0.200   0.960 -1.9968  1.9876 -1.1089
  763THF     C812914   1.243   0.137   1.109 -0.8152  0.5239  0.1665
  763THF     C912915   1.271   0.202   1.239 -0.2857  0.7288 -0.4256
  763THF    H1012916   1.309   0.169   1.028  0.1605  0.3855 -0.5901
  763THF    H1112917   1.252   0.033   1.118  0.1759 -2.6002 -1.6847
  763THF    H1212918   1.301   0.128   1.314 -1.9618 -0.3782  1.0189
  763THF    H1312919   1.362   0.269   1.228 -0.0839 -3.7545  0.1746
  764THF     O112920   1.590   4.168   1.380 -0.5250 -1.3035 -0.4745
  764THF     C212921   1.727   4.209   1.367  0.3055 -0.5058  0.4554
  764THF     C312922   1.559   4.085   1.269 -0.0157 -0.6255 -0.4697
  764THF     H412923   1.793   4.126   1.390 -0.5870  2.1041  0.1159
  764THF     H512924   1.750   4.282   1.450 -2.3734  1.3373 -0.5596
  764THF     H612925   1.611   3.992   1.275 -0.2174  0.0156 -0.4526
  764THF     H712926   1.453   4.071   1.257  0.6206 -0.6935 -1.0396
  764THF     C812927   1.625   4.164   1.157  0.4228 -0.0256  0.9760
  764THF     C912928   1.736   4.248   1.223  0.2117 -0.3028 -0.1733
  764THF    H1012929   1.538   4.217   1.123  1.0317  0.3626 -0.6700
  764THF    H1112930   1.665   4.109   1.066 -3.0960 -1.0881  1.3173
  764THF    H1212931   1.833   4.241   1.179 -2.5106  0.4112  1.3551
  764THF    H1312932   1.708   4.356   1.198 -1.0775  0.0935  1.0235
  765THF     O112933   1.654   5.498   0.375  0.1284 -0.0108  0.4836
  765THF     C212934   1.613   5.526   0.242  0.2036 -0.9246  1.2058
  765THF     C312935   1.563   5.415   0.439 -0.3173 -0.4473  0.2483
  765THF     H412936   1.646   5.449   0.182 -1.4053 -0.8023  2.6992
  765THF     H512937   1.657   5.621   0.200 -1.3710 -0.0183  0.3148
  765THF     H612938   1.602   5.320   0.423  0.0404 -2.0269  0.4307
  765THF     H712939   1.556   5.442   0.550  1.9900  1.5402 -1.8416
  765THF     C812940   1.430   5.452   0.369  0.1905  0.3257  0.0822
  765THF     C912941   1.461   5.518   0.233 -0.3996  0.3480  0.0697
  765THF    H1012942   1.374   5.529   0.422  1.4524  0.3586 -0.7691
  765THF    H1112943   1.375   5.364   0.351 -1.2770 -0.8420  0.8606
  765THF    H1212944   1.430   5.456   0.153 -0.6089  0.0830  0.2223
  765THF    H1312945   1.417   5.615   0.226 -0.7577 -0.5861  2.4915
  766THF     O112946   2.094   0.491   1.622  0.5072 -0.1082  0.2109
  766THF     C212947   2.100   0.586   1.521 -0.6544  0.8094  0.5048
  766THF     C312948   2.018   0.388   1.571 -0.7644  0.4912  0.0901
  766THF     H412949   2.189   0.591   1.462 -1.7362 -0.5891  1.6453
  766THF     H512950   2.115   0.690   1.560 -0.6533 -0.0587  1.4630
  766THF     H612951   2.076   0.332   1.498 -0.7260 -1.8018 -1.2999
  766THF     H712952   1.981   0.333   1.647  1.4049 -1.6230 -1.4496
  766THF     C812953   1.900   0.454   1.510  0.1367  0.3742 -0.4247
  766THF     C912954   1.973   0.569   1.441  0.0207  0.2870 -0.4612
  766THF    H1012955   1.837   0.490   1.594 -1.1652  1.4853 -0.7250
  766THF    H1112956   1.839   0.390   1.444  1.6249 -1.7493 -0.0448
  766THF    H1212957   2.014   0.541   1.351 -1.6586 -2.0713 -1.2412
  766THF    H1312958   1.914   0.665   1.433  0.1278  0.4238  1.9147
  767THF     O112959   2.663   5.456   3.931 -0.0098 -0.4854 -0.1641
  767THF     C212960   2.586   5.461   3.816  0.1666  0.3287 -0.3793
  767THF     C312961   2.793   5.504   3.893  0.3314  0.9584  1.0665
  767THF     H412962   2.563   5.568   3.795  2.1472  2.6396 -1.4022
  767THF     H512963   2.492   5.407   3.838 -1.7680 -0.5268  3.1293
  767THF     H612964   2.794   5.617   3.891  0.8648 -0.8316  0.6470
  767THF     H712965   2.867   5.480   3.969 -0.6974  0.2356  3.0817
  767THF     C812966   2.817   5.435   3.754  0.2359  0.0482 -0.4592
  767THF     C912967   2.673   5.411   3.709  0.2499 -0.6611  0.3316
  767THF    H1012968   2.876   5.339   3.763  1.2863 -0.9869  0.7235
  767THF    H1112969   2.875   5.505   3.694  0.2450 -2.6428 -2.9119
  767THF    H1212970   2.663   5.460   3.606  0.5344 -0.1483 -2.3761
  767THF    H1312971   2.662   5.301   3.702  2.4359 -1.1876  0.6385
  768THF     O112972   4.804   4.148   1.906  0.0874 -0.0700 -0.1143
  768THF     C212973   4.736   4.029   1.948 -0.3308 -0.2009  0.0069
  768THF     C312974   4.866   4.196   2.023 -0.0360  0.7097 -0.1186
  768THF     H412975   4.763   3.941   1.890  1.7252 -0.7827  1.2428
  768THF     H512976   4.630   4.057   1.927 -0.1992  2.2656 -1.6158
  768THF     H612977   4.966   4.155   2.029  0.4132  0.5844 -0.6672
  768THF     H712978   4.875   4.304   2.016  2.0917  3.0817 -1.0363
  768THF     C812979   4.790   4.141   2.143 -0.0681  0.4240  0.1555
  768THF     C912980   4.765   4.001   2.091  0.0848  0.2695  0.2517
  768THF    H1012981   4.690   4.185   2.153  1.3975 -1.3179 -1.4638
  768THF    H1112982   4.844   4.137   2.241 -0.6795  0.2080  1.3030
  768THF    H1212983   4.855   3.940   2.092  1.8000  1.3903 -3.3059
  768THF    H1312984   4.685   3.939   2.134  0.5620 -0.5927 -0.2853
  769THF     O112985   4.146   3.794   4.697 -0.3092 -0.2494  0.0567
  769THF     C212986   4.076   3.880   4.605 -0.1760  0.5242 -0.7967
  769THF     C312987   4.142   3.662   4.639  0.2866  0.3123 -0.0099
  769THF     H412988   4.145   3.898   4.528 -0.5862  0.1590  0.7459
  769THF     H512989   4.029   3.963   4.645  1.9689  2.5546 -2.2278
  769THF     H612990   4.216   3.662   4.560  0.0112 -2.2695 -0.0432
  769THF     H712991   4.160   3.573   4.704  0.5874  0.5038 -1.3878
  769THF     C812992   4.013   3.651   4.559  0.1860  0.4299  0.1752
  769THF     C912993   3.955   3.796   4.569  0.3725 -0.6113  0.7170
  769THF    H1012994   3.950   3.572   4.610 -3.3105 -0.1578 -0.2507
  769THF    H1112995   4.023   3.618   4.458 -1.3804  2.2219 -2.4469
  769THF    H1212996   3.915   3.825   4.473  4.7676 -0.6000  2.6557
  769THF    H1312997   3.885   3.793   4.653 -1.6768 -2.0318  0.9238
  770THF     O112998   5.460   1.761   2.916 -0.5075 -0.4490  0.4037
  770THF     C212999   5.512   1.643   2.847  0.1478  0.0189 -0.2409
  770THF     C313000   5.377   1.707   3.018 -0.0522 -0.0475  0.7743
  770THF     H413001   5.599   1.663   2.786 -1.1179 -0.7712  0.9706
  770THF     H513002   5.436   1.610   2.782 -1.1168 -0.4893  0.5653
  770THF     H613003   5.352   1.788   3.086 -2.4025 -1.9812  1.4621
  770THF     H713004   5.285   1.658   2.983  1.0749 -0.3459  0.6437
  770THF     C813005   5.471   1.603   3.080  0.0692 -0.1935 -0.0557
  770THF     C913006   5.541   1.538   2.964  0.2365  0.1321  0.4672
  770THF    H1013007   5.424   1.529   3.145 -0.5235  2.0457 -0.1002
  770THF    H1113008   5.545   1.661   3.135 -0.9701  1.8061  0.5798
  770THF    H1213009   5.646   1.520   2.980 -3.3123  2.2442  0.4786
  770THF    H1313010   5.513   1.437   2.944  1.5243 -1.3897  0.2337
  771THF     O113011   0.219   0.701   3.956 -0.5549  0.6836  0.1328
  771THF     C213012   0.193   0.769   4.075  0.0690 -0.1481  0.6923
  771THF     C313013   0.334   0.617   3.960  0.0358 -0.2553 -0.5062
  771THF     H413014   0.151   0.697   4.144  0.2578 -2.6167  2.2157
  771THF     H513015   0.120   0.843   4.064  1.3725 -2.7778  0.1265
  771THF     H613016   0.299   0.525   4.009  1.2441  0.6607  0.4054
  771THF     H713017   0.373   0.601   3.856  1.7072 -0.2724 -1.8214
  771THF     C813018   0.420   0.699   4.057 -0.1687  0.0189  0.1939
  771THF     C913019   0.333   0.813   4.111  0.4401  0.5011  0.3616
  771THF    H1013020   0.506   0.730   3.995  0.7451 -0.8953  0.8211
  771THF    H1113021   0.456   0.637   4.136  1.1177  0.6126 -0.3431
  771THF    H1213022   0.337   0.839   4.214  0.0699 -2.2197 -1.8573
  771THF    H1313023   0.354   0.906   4.062 -0.3443  0.4751  0.1436
  772THF     O113024   2.847   0.650   5.341 -0.1755  0.6094  0.3788
  772THF     C213025   2.814   0.607   5.206 -0.1075 -0.4260  0.5546
  772THF     C313026   2.831   0.793   5.352  0.2574  0.0071  0.1466
  772THF     H413027   2.710   0.580   5.193 -2.2562  1.9861 -1.1867
  772THF     H513028   2.869   0.521   5.178  0.7877  0.1614 -0.5849
  772THF     H613029   2.725   0.829   5.375 -0.2002  0.6308  0.6540
  772THF     H713030   2.890   0.826   5.436 -0.4705 -2.2093 -1.2120
  772THF     C813031   2.866   0.845   5.220 -0.3078  0.4182  0.7142
  772THF     C913032   2.837   0.734   5.117  0.2467  0.5456  0.2584
  772THF    H1013033   2.976   0.866   5.214 -0.2423 -0.6116  3.6768
  772THF    H1113034   2.824   0.942   5.195  2.1636  0.6121  0.3889
  772THF    H1213035   2.760   0.767   5.048  2.1163 -0.5872  0.2589
  772THF    H1313036   2.921   0.719   5.058 -0.0181  0.9117  4.5615
  773THF     O113037   2.327   3.575   4.790 -0.1437  0.0498  0.4086
  773THF     C213038   2.457   3.520   4.763  0.1698  0.4612  0.0911
  773THF     C313039   2.311   3.577   4.934 -0.1207  0.5900  0.4640
  773THF     H413040   2.496   3.554   4.666 -0.0195  0.1775 -2.0307
  773THF     H513041   2.459   3.412   4.754  1.7197 -3.2135 -1.6683
  773THF     H613042   2.231   3.646   4.954 -0.1834 -2.2187 -1.8179
  773THF     H713043   2.280   3.479   4.969  0.1731  1.4082  0.2242
  773THF     C813044   2.452   3.610   4.981  0.1821  0.1004 -0.4965
  773THF     C913045   2.542   3.582   4.871  0.6205 -0.4983 -0.2382
  773THF    H1013046   2.471   3.566   5.076  1.4981 -0.0742  1.0428
  773THF    H1113047   2.465   3.718   4.999  0.2840 -0.5288  0.1300
  773THF    H1213048   2.588   3.678   4.833  0.5274 -1.3811 -1.7099
  773THF    H1313049   2.620   3.512   4.908  0.8306 -1.9907  0.9905
  774THF     O113050   3.703   4.341   3.734  0.3499  0.3670 -0.4395
  774THF     C213051   3.811   4.271   3.783  0.0256 -0.4471  0.1334
  774THF     C313052   3.589   4.325   3.813  0.1442  0.1681  0.3285
  774THF     H413053   3.897   4.340   3.767 -2.4794  0.8888  0.3287
  774THF     H513054   3.821   4.174   3.724  1.5106  1.0695 -0.6640
  774THF     H613055   3.560   4.421   3.850  2.0094  0.9827 -1.7292
  774THF     H713056   3.503   4.288   3.760 -3.0153  0.1312  1.0889
  774THF     C813057   3.629   4.242   3.935 -0.1222  0.2152 -0.1169
  774THF     C913058   3.779   4.264   3.938 -0.3425 -0.0230 -0.2126
  774THF    H1013059   3.601   4.147   3.896 -3.4696  2.4959  2.2039
  774THF    H1113060   3.575   4.253   4.032 -0.6581  0.0013  1.5153
  774THF    H1213061   3.799   4.355   3.994 -0.4382 -1.2926  2.2101
  774THF    H1313062   3.828   4.179   3.989  0.0582 -1.3773 -0.4673
  775THF     O113063   1.326   0.556   4.012  0.1034  0.1045  0.4694
  775THF     C213064   1.374   0.454   3.918 -0.4559 -0.2292 -0.1428
  775THF     C313065   1.191   0.589   3.975 -0.5230 -1.0585  0.6707
  775THF     H413066   1.393   0.373   3.982  0.8067  1.0723 -2.3761
  775THF     H513067   1.465   0.484   3.868  0.6691 -2.2419  0.6658
  775THF     H613068   1.133   0.602   4.062  2.5392 -2.4957 -0.0174
  775THF     H713069   1.177   0.686   3.929 -1.9244 -2.0791 -0.3428
  775THF     C813070   1.140   0.468   3.889  0.0095  0.1280 -0.7601
  775THF     C913071   1.261   0.430   3.816  0.1550  0.0241  0.3703
  775THF    H1013072   1.050   0.489   3.831 -1.5430 -1.6233 -0.6774
  775THF    H1113073   1.125   0.380   3.951  0.4237 -1.2057 -1.5446
  775THF    H1213074   1.254   0.329   3.775  0.7127  1.7197 -1.8770
  775THF    H1313075   1.284   0.496   3.732  1.7146  2.2501 -0.2467
  776THF     O113076   0.669   0.044   0.213  0.3115 -0.3800 -0.0535
  776THF     C213077   0.628  -0.031   0.326  0.4586  0.5589 -0.4972
  776THF     C313078   0.547   0.104   0.173  0.1577 -0.3670  0.9375
  776THF     H413079   0.713  -0.067   0.379 -0.7912 -0.9773 -0.6236
  776THF     H513080   0.566  -0.110   0.293 -0.3519  2.3350  2.6127
  776THF     H613081   0.573   0.181   0.098  0.5915 -1.7778  0.3270
  776THF     H713082   0.479   0.032   0.127 -0.2786  0.0388 -0.0282
  776THF     C813083   0.474   0.155   0.298 -0.9266  1.4236  0.2858
  776THF     C913084   0.538   0.066   0.402  0.2591  0.5513  0.1326
  776THF    H1013085   0.371   0.135   0.300 -0.2751 -0.8520  0.4445
  776THF    H1113086   0.485   0.265   0.318  2.5019 -1.3480  0.7584
  776THF    H1213087   0.580   0.136   0.478  3.2968  0.7883 -0.5404
  776THF    H1313088   0.460   0.013   0.447 -0.5285  3.0552 -0.2707
  777THF     O113089   3.415   0.773   2.363 -0.0396 -0.0883 -0.3818
  777THF     C213090   3.397   0.690   2.475  0.4361  0.6140 -0.5854
  777THF     C313091   3.389   0.905   2.408 -0.4517  0.6939 -0.1756
  777THF     H413092   3.489   0.673   2.531  1.0665 -1.0924 -2.2534
  777THF     H513093   3.358   0.592   2.451 -3.8725  3.4939  0.2183
  777THF     H613094   3.470   0.943   2.461 -2.8219 -2.6439  2.5588
  777THF     H713095   3.370   0.972   2.325  3.6929 -1.1575 -0.6638
  777THF     C813096   3.263   0.894   2.498  0.2225 -0.1250  0.0271
  777THF     C913097   3.294   0.765   2.573  0.7605  0.5946 -0.4333
  777THF    H1013098   3.170   0.900   2.443 -4.0438  0.9307  1.3190
  777THF    H1113099   3.253   0.975   2.565  1.0206  1.8594 -1.0599
  777THF    H1213100   3.335   0.779   2.672 -1.2763 -0.5935 -0.9607
  777THF    H1313101   3.201   0.716   2.590 -0.5065  1.5494  1.6336
  778THF     O113102   3.261   1.009   5.391  0.8315 -0.3193  0.5844
  778THF     C213103   3.364   1.057   5.480  0.1040 -0.0480  0.1586
  778THF     C313104   3.163   1.113   5.377  0.3308 -0.1471 -0.2546
  778THF     H413105   3.448   1.101   5.431  0.5421 -0.3746 -1.1494
  778THF     H513106   3.390   0.972   5.543 -0.4519 -2.3353  0.4381
  778THF     H613107   3.142   1.151   5.277 -1.3137 -2.2960  2.9771
  778THF     H713108   3.062   1.077   5.404  1.6327 -0.4278 -2.0785
  778THF     C813109   3.214   1.229   5.467  0.2029 -0.5333  0.4752
  778THF     C913110   3.303   1.159   5.571 -0.4941 -0.6953  0.0581
  778THF    H1013111   3.147   1.306   5.512  0.7683 -2.1084  2.4251
  778THF    H1113112   3.273   1.296   5.411  0.6263 -1.0854 -2.0791
  778THF    H1213113   3.375   1.232   5.615 -0.0160 -0.3721  0.0212
  778THF    H1313114   3.249   1.114   5.649 -2.3356 -1.7369  0.0416
  779THF     O113115   4.167   0.296   5.480 -0.5694 -0.0150 -0.3511
  779THF     C213116   4.238   0.302   5.603  0.8780 -0.2475 -0.3055
  779THF     C313117   4.173   0.160   5.444  0.7376 -0.6981 -0.4061
  779THF     H413118   4.220   0.400   5.652  3.2192 -1.6993 -1.8335
  779THF     H513119   4.348   0.266   5.610 -0.8314 -1.1486  1.2812
  779THF     H613120   4.104   0.139   5.363  1.0302  1.5371  1.0009
  779THF     H713121   4.268   0.140   5.393  1.5186  0.1481 -0.5005
  779THF     C813122   4.166   0.083   5.579  0.0099  0.0106  0.6006
  779THF     C913123   4.170   0.193   5.687 -0.0709 -0.0888  0.1912
  779THF    H1013124   4.251   0.022   5.584 -1.2412 -1.5558 -1.4221
  779THF    H1113125   4.078   0.022   5.594  0.7889 -2.1726  3.6802
  779THF    H1213126   4.068   0.220   5.710  1.4234  0.6114 -0.4254
  779THF    H1313127   4.231   0.172   5.773 -0.7385 -3.9765 -0.3608
  780THF     O113128   5.249   0.092   0.443 -0.7074  0.0663  0.0581
  780THF     C213129   5.196   0.203   0.505 -0.7920 -0.0342  0.0709
  780THF     C313130   5.350   0.128   0.352 -0.0726  0.0057  0.2583
  780THF     H413131   5.251   0.253   0.582  0.2740 -1.4305  0.8183
  780THF     H513132   5.090   0.183   0.532 -0.7218 -2.1023  1.3108
  780THF     H613133   5.445   0.108   0.395  0.0812 -2.4402 -1.8823
  780THF     H713134   5.341   0.066   0.260 -1.1232 -1.5226  0.1986
  780THF     C813135   5.323   0.272   0.316  0.8841 -0.1938 -0.0822
  780THF     C913136   5.203   0.306   0.395 -0.1788  0.8828  0.2441
  780THF    H1013137   5.317   0.287   0.206  0.2198  0.1363  1.4843
  780THF    H1113138   5.405   0.328   0.364  0.0143 -0.8552 -1.8629
  780THF    H1213139   5.212   0.406   0.438  1.0281 -0.4515 -0.2448
  780THF    H1313140   5.114   0.296   0.338  2.2089 -0.8433  2.8951
  781THF     O113141   4.998   1.145   2.325 -0.2299 -0.0940 -0.1864
  781THF     C213142   4.901   1.212   2.410 -0.4998 -0.4136 -0.6058
  781THF     C313143   4.964   1.179   2.187  0.4863 -0.4074  0.1799
  781THF     H413144   4.942   1.259   2.503 -0.2860  1.4956  1.5572
  781THF     H513145   4.841   1.129   2.442  0.9161  0.0593 -1.6940
  781THF     H613146   5.031   1.256   2.143  0.5148  1.2762 -0.2253
  781THF     H713147   4.973   1.093   2.121  0.5092 -1.5175 -1.3241
  781THF     C813148   4.821   1.235   2.185 -0.5099  0.7807 -0.2231
  781THF     C913149   4.811   1.292   2.324 -0.3199 -0.4501  0.4859
  781THF    H1013150   4.750   1.151   2.167 -2.8330 -0.7552  2.0392
  781THF    H1113151   4.804   1.300   2.097  0.8163 -3.1215 -1.9902
  781THF    H1213152   4.850   1.396   2.300 -1.3625 -1.9344 -0.5005
  781THF    H1313153   4.704   1.305   2.356 -1.6716  0.8328  0.0031
  782THF     O113154   5.024   1.624   2.098  0.3638 -0.1946 -0.4622
  782THF     C213155   5.153   1.673   2.069 -0.1099  0.1456 -0.0280
  782THF     C313156   4.979   1.699   2.209 -0.2200  0.4233  0.1842
  782THF     H413157   5.142   1.759   2.000  0.2998  1.4744 -3.5535
  782THF     H513158   5.210   1.595   2.020  0.3084 -0.8929  0.1433
  782THF     H613159   4.904   1.772   2.177 -0.3359 -0.0826  0.2624
  782THF     H713160   4.928   1.628   2.269  2.2176  1.7840  1.2791
  782THF     C813161   5.094   1.767   2.280  0.6155  0.2538 -0.1390
  782THF     C913162   5.215   1.710   2.202 -0.0243  0.2379 -0.4375
  782THF    H1013163   5.108   1.756   2.388 -0.3434  1.5523 -0.8097
  782THF    H1113164   5.082   1.879   2.263  1.0772  1.0505  1.9191
  782THF    H1213165   5.300   1.783   2.191  1.5440 -0.4130  0.6968
  782THF    H1313166   5.259   1.616   2.249 -1.0109  0.1356 -1.1385
  783THF     O113167   3.036   1.741   3.998 -0.4179  0.4817  0.6792
  783THF     C213168   2.942   1.749   4.104  0.0848  0.1767  0.6744
  783THF     C313169   3.017   1.606   3.942  0.1569  0.3017  0.3533
  783THF     H413170   2.845   1.758   4.056 -0.4059  0.2848 -0.6979
  783THF     H513171   2.965   1.831   4.173 -1.7598 -1.2396 -2.4002
  783THF     H613172   2.926   1.611   3.888  1.6126  1.5085  1.7039
  783THF     H713173   3.105   1.591   3.878 -1.6688 -3.1553  0.1023
  783THF     C813174   3.016   1.521   4.068  0.2037 -0.6175  0.2315
  783THF     C913175   2.949   1.609   4.173  0.0562 -0.0955 -0.4999
  783THF    H1013176   3.115   1.488   4.091  1.2221  0.6784  0.8269
  783THF    H1113177   2.958   1.442   4.031  3.7208 -0.1824 -2.2485
  783THF    H1213178   2.851   1.573   4.198 -0.0059  3.4545  0.6261
  783THF    H1313179   2.994   1.613   4.270  2.1181  1.2672  1.0934
  784THF     O113180   3.496   5.472   0.103 -0.3045 -0.2259  0.9088
  784THF     C213181   3.395   5.396   0.176 -1.1205 -0.4681 -0.0268
  784THF     C313182   3.523   5.584   0.193 -0.0435  0.0819  0.1462
  784THF     H413183   3.377   5.296   0.141 -3.4001  2.6493 -0.8996
  784THF     H513184   3.298   5.446   0.181  2.3615 -3.0353  0.0461
  784THF     H613185   3.626   5.618   0.158  1.1736  1.5893  1.1504
  784THF     H713186   3.460   5.671   0.175 -0.9009  0.8360  2.5370
  784THF     C813187   3.506   5.534   0.339 -0.1794 -0.6624  0.2203
  784THF     C913188   3.451   5.392   0.318 -1.2544  0.4679 -0.2684
  784THF    H1013189   3.431   5.589   0.383 -1.0499  1.7607  0.8053
  784THF    H1113190   3.597   5.537   0.403  0.0159 -3.5279  3.3819
  784THF    H1213191   3.532   5.318   0.338 -0.5665 -0.1612  0.5048
  784THF    H1313192   3.373   5.369   0.387 -3.4349  2.9814  1.0783
  785THF     O113193   2.749   3.573   3.258 -0.1708 -0.2351  0.0136
  785THF     C213194   2.789   3.441   3.241 -0.2314  0.3041  0.2401
  785THF     C313195   2.616   3.587   3.302 -0.0633  0.2980  0.0411
  785THF     H413196   2.896   3.421   3.257  0.1326 -0.9230  0.0942
  785THF     H513197   2.755   3.413   3.137 -1.4262  1.1019  1.5095
  785THF     H613198   2.610   3.676   3.355  0.3676 -1.7616 -2.7148
  785THF     H713199   2.552   3.582   3.211  2.6196 -0.6223  1.7844
  785THF     C813200   2.594   3.468   3.393 -0.5250 -0.6132 -0.0765
  785THF     C913201   2.699   3.369   3.347  0.5113  0.2984 -0.1408
  785THF    H1013202   2.484   3.442   3.385 -1.0020  1.8559  1.6998
  785THF    H1113203   2.618   3.507   3.494  2.3398 -2.5974 -2.1633
  785THF    H1213204   2.759   3.338   3.437 -0.1949 -0.1779 -0.4606
  785THF    H1313205   2.658   3.275   3.307 -0.5153  0.4785 -0.1184
  786THF     O113206   2.330   0.645   5.000 -0.3720  0.6124 -0.2868
  786THF     C213207   2.308   0.559   4.892  0.6899  0.0064  0.7069
  786THF     C313208   2.458   0.700   4.986 -0.1209  0.6558  0.5247
  786THF     H413209   2.209   0.532   4.880 -0.5601  2.1845 -1.2152
  786THF     H513210   2.377   0.471   4.914  0.2594  0.8049  1.0556
  786THF     H613211   2.472   0.788   5.051  0.4373  1.5418  0.4668
  786THF     H713212   2.533   0.628   5.018  0.7429  3.3281  1.9499
  786THF     C813213   2.457   0.732   4.834  0.1325 -0.2492  0.1315
  786THF     C913214   2.349   0.646   4.771  0.1828 -0.0423  0.6114
  786THF    H1013215   2.556   0.706   4.790 -2.1348 -0.3108 -0.3589
  786THF    H1113216   2.424   0.838   4.815 -1.0684  1.1342  0.5375
  786THF    H1213217   2.262   0.697   4.730 -0.1224 -2.1903 -1.6666
  786THF    H1313218   2.396   0.594   4.692 -1.3353  0.2286  1.0914
  787THF     O113219   1.669   1.930   3.069  0.0264 -0.6788  0.3694
  787THF     C213220   1.593   2.047   3.113  0.8486  0.2842 -0.6182
  787THF     C313221   1.767   1.968   2.980 -0.1033 -0.7811  0.9746
  787THF     H413222   1.565   2.022   3.212  1.5462  0.7070 -0.9261
  787THF     H513223   1.506   2.052   3.046  1.8682  2.5862 -0.0390
  787THF     H613224   1.842   1.890   2.967  1.5906  2.9295  1.3286
  787THF     H713225   1.721   1.989   2.882  3.1485  3.3952 -1.8852
  787THF     C813226   1.815   2.098   3.047 -0.4309 -0.4002 -0.2992
  787THF     C913227   1.690   2.164   3.091  0.3784 -0.3333  0.4069
  787THF    H1013228   1.870   2.152   2.972  0.0047 -1.4283  1.1804
  787THF    H1113229   1.879   2.067   3.131  2.7922  0.9725 -1.1499
  787THF    H1213230   1.697   2.234   3.182 -0.5460  1.8401  2.2481
  787THF    H1313231   1.657   2.227   3.001 -1.5751 -1.9178 -1.3852
  788THF     O113232   5.029   0.807   1.129  0.1898  0.2669 -0.1843
  788THF     C213233   5.163   0.849   1.166  0.1318 -0.2702 -0.2406
  788THF     C313234   4.954   0.925   1.110  0.3955 -0.2932  0.3246
  788THF     H413235   5.210   0.883   1.071 -1.7633  0.8514  1.0841
  788THF     H513236   5.201   0.750   1.200 -2.8708  0.0469 -0.1071
  788THF     H613237   4.997   0.970   1.018  0.5355 -1.4410 -2.1744
  788THF     H713238   4.846   0.904   1.090  0.3302  0.9693 -0.1826
  788THF     C813239   5.000   1.027   1.211  0.3553  0.2264  0.2614
  788THF     C913240   5.128   0.952   1.264 -0.1682 -0.3682  0.4248
  788THF    H1013241   4.915   1.021   1.283 -1.9521  0.3688 -2.2471
  788THF    H1113242   5.005   1.125   1.161  2.5789  1.6700  0.7913
  788THF    H1213243   5.206   1.015   1.280  1.3323 -0.3065 -3.4950
  788THF    H1313244   5.110   0.908   1.363  0.2644  0.4743  0.0475
  789THF     O113245   2.679   1.339   2.185 -0.2041 -0.4552  0.3206
  789THF     C213246   2.542   1.361   2.203 -0.1096 -0.2253 -0.3820
  789THF     C313247   2.705   1.307   2.049 -0.3411  0.2919 -0.0291
  789THF     H413248   2.513   1.462   2.165  0.9185  2.3704 -2.4777
  789THF     H513249   2.524   1.349   2.307  1.4726  0.4066 -0.1392
  789THF     H613250   2.734   1.404   1.999 -0.6663  0.5538 -1.6317
  789THF     H713251   2.789   1.235   2.044  1.4254 -1.0214  0.3583
  789THF     C813252   2.580   1.238   2.002 -0.4072 -0.3925 -0.9278
  789THF     C913253   2.474   1.262   2.116 -0.8619 -0.3134 -0.5400
  789THF    H1013254   2.596   1.128   1.994  4.1309 -3.3477  0.3206
  789THF    H1113255   2.546   1.283   1.909  0.7993  1.3965 -0.2264
  789THF    H1213256   2.381   1.301   2.074  2.4263 -0.4150 -0.9044
  789THF    H1313257   2.448   1.168   2.169  0.1888 -0.6047  0.3681
  790THF     O113258   4.660   1.189   3.816  0.2308  0.1956 -0.0424
  790THF     C213259   4.526   1.229   3.790 -0.3193 -0.4787  0.7205
  790THF     C313260   4.739   1.275   3.751 -0.1152  0.7757  0.5411
  790THF     H413261   4.449   1.176   3.848  0.4526  0.7500  1.4341
  790THF     H513262   4.508   1.204   3.684 -1.1760 -0.6270 -3.5854
  790THF     H613263   4.843   1.274   3.794  1.4272 -1.0575  1.6202
  790THF     H713264   4.762   1.254   3.649  0.5807  0.0640  3.6595
  790THF     C813265   4.672   1.408   3.783  0.2387  0.1633  0.2048
  790THF     C913266   4.529   1.375   3.815 -0.1885 -0.0435 -0.0361
  790THF    H1013267   4.680   1.484   3.711 -0.1322 -2.3332  0.4122
  790THF    H1113268   4.720   1.442   3.871  1.2157 -3.6235 -1.6003
  790THF    H1213269   4.501   1.391   3.921  0.4187 -1.9885 -1.8514
  790THF    H1313270   4.461   1.434   3.754  1.7382  1.3978  0.7383
  791THF     O113271   0.387   1.936   1.929  0.2695  0.8922 -0.2320
  791THF     C213272   0.323   1.819   1.892  0.0246  0.4802  0.4911
  791THF     C313273   0.342   2.031   1.825 -0.1979  0.7325 -0.3869
  791THF     H413274   0.323   1.744   1.978 -2.8222  0.6654  1.5693
  791THF     H513275   0.377   1.754   1.820  0.5102 -2.6354  1.7178
  791THF     H613276   0.346   2.124   1.870  2.6006 -1.0700  0.3085
  791THF     H713277   0.390   2.017   1.727  0.4701 -0.1017  0.3129
  791THF     C813278   0.188   2.005   1.824  0.4880 -0.3349 -0.1815
  791THF     C913279   0.190   1.856   1.842  0.4850 -0.0390 -0.2380
  791THF    H1013280   0.142   2.042   1.726 -0.2012 -0.3351  0.0804
  791THF    H1113281   0.141   2.040   1.914  2.1999 -0.8049  0.4263
  791THF    H1213282   0.116   1.845   1.921 -1.2291  0.7276 -1.9481
  791THF    H1313283   0.162   1.802   1.754 -0.3508 -2.8891  2.2749
  792THF     O113284   3.040   2.331   2.893  0.2967 -0.7742 -0.3783
  792THF     C213285   3.167   2.376   2.918 -0.5979  0.0607 -0.0492
  792THF     C313286   2.960   2.420   2.976  0.0108  0.6308 -0.0090
  792THF     H413287   3.187   2.468   2.854 -0.8836 -0.5153 -2.1672
  792THF     H513288   3.224   2.297   2.879  1.5432  3.2496 -1.0151
  792THF     H613289   2.944   2.510   2.926  1.2269  1.0560 -0.0969
  792THF     H713290   2.857   2.379   2.990  0.0050  1.9298 -1.9858
  792THF     C813291   3.043   2.456   3.101  0.1076  0.5267  0.8329
  792THF     C913292   3.173   2.389   3.065 -0.4351 -0.4727  0.0929
  792THF    H1013293   3.001   2.415   3.195  0.2937 -1.8305  0.4233
  792THF    H1113294   3.059   2.559   3.118 -0.9987 -0.6159 -0.7517
  792THF    H1213295   3.262   2.438   3.095 -1.8284 -1.7291  0.0525
  792THF    H1313296   3.175   2.290   3.112 -0.3479 -1.0990 -2.4869
  793THF     O113297   2.039   3.900   3.700 -0.9577  0.3048 -0.6369
  793THF     C213298   1.936   3.813   3.667 -0.2439  0.0292  0.0608
  793THF     C313299   1.972   4.001   3.767  0.6645  0.6298  0.0220
  793THF     H413300   1.988   3.721   3.650  1.3252  3.3153  1.6752
  793THF     H513301   1.876   3.841   3.577 -0.1591  1.0607 -2.1740
  793THF     H613302   2.038   4.069   3.813 -0.3467 -0.5324  0.5883
  793THF     H713303   1.908   4.073   3.706 -1.3328 -0.3493 -0.4586
  793THF     C813304   1.878   3.930   3.867 -0.2400  0.3976 -0.7436
  793THF     C913305   1.851   3.804   3.795  0.0008 -0.6237  0.0262
  793THF    H1013306   1.786   3.985   3.897 -2.0793 -2.3330  1.7047
  793THF    H1113307   1.942   3.910   3.954 -0.6645 -0.1677 -2.3421
  793THF    H1213308   1.895   3.721   3.846  2.0067  1.6828  1.6774
  793THF    H1313309   1.745   3.790   3.774  1.1018  0.5654  0.9623
  794THF     O113310   3.835   0.981   4.846  0.0800  0.2741  0.4824
  794THF     C213311   3.934   1.056   4.908 -0.2008 -0.2946 -0.6119
  794THF     C313312   3.882   0.925   4.719 -0.2907 -0.5485 -0.4204
  794THF     H413313   3.986   1.005   4.987  0.3782 -0.4905 -1.4985
  794THF     H513314   3.894   1.150   4.948 -2.2331  1.2698 -2.1923
  794THF     H613315   3.863   0.820   4.733 -1.0215  1.6076  0.1736
  794THF     H713316   3.824   0.972   4.636 -1.6818  0.7604  1.2120
  794THF     C813317   4.037   0.957   4.717  0.7488  0.0606  0.1410
  794THF     C913318   4.044   1.083   4.798 -0.3732  0.6085 -0.0764
  794THF    H1013319   4.081   0.993   4.621  0.0686  0.8488 -2.0072
  794THF    H1113320   4.095   0.863   4.750  0.0183 -1.0527  2.0609
  794THF    H1213321   4.148   1.113   4.830  0.4597 -0.8628 -0.7341
  794THF    H1313322   3.991   1.159   4.742 -2.4812 -0.9922  1.9885
  795THF     O113323   2.250   2.370   4.750  1.0248 -0.5104  1.0492
  795THF     C213324   2.396   2.354   4.758  0.0080  0.4155  0.2206
  795THF     C313325   2.233   2.438   4.628  0.8128  0.5089  0.4510
  795THF     H413326   2.440   2.263   4.706 -0.4747 -1.3768 -1.0284
  795THF     H513327   2.417   2.349   4.864  1.4092 -0.0103  0.9741
  795THF     H613328   2.233   2.362   4.542  0.7358 -1.1796 -2.3203
  795THF     H713329   2.139   2.497   4.635  0.5293  1.1101 -0.4539
  795THF     C813330   2.344   2.540   4.620  0.0174  0.4704 -0.1708
  795THF     C913331   2.454   2.481   4.701 -0.6958 -0.4623 -0.9549
  795THF    H1013332   2.320   2.642   4.654  1.4645 -1.0816 -2.7422
  795THF    H1113333   2.372   2.558   4.512  1.1213  3.0065 -1.4559
  795THF    H1213334   2.539   2.461   4.631 -2.5549  0.4108  1.0103
  795THF    H1313335   2.493   2.545   4.782 -2.3238 -0.7524 -0.0798
  796THF     O113336   0.965   1.011   4.352  0.1511  0.1045 -0.0758
  796THF     C213337   1.023   1.059   4.470 -0.0356  0.2272  0.0557
  796THF     C313338   0.998   0.875   4.350 -0.1454  0.2508 -0.1110
  796THF     H413339   0.972   1.154   4.505 -0.7900 -0.5866  0.9076
  796THF     H513340   1.124   1.089   4.446 -0.8982  0.7981  0.9280
  796THF     H613341   0.935   0.813   4.285 -0.9018 -1.2975 -0.3257
  796THF     H713342   1.102   0.852   4.331  0.4863  2.4487  2.5037
  796THF     C813343   0.968   0.830   4.499 -0.5458  0.2213 -0.3586
  796THF     C913344   1.002   0.956   4.576  1.0076  0.1585  0.4376
  796THF    H1013345   1.026   0.747   4.529 -1.0357  2.0055 -1.1207
  796THF    H1113346   0.866   0.809   4.495  1.6220  0.4156  2.6109
  796THF    H1213347   0.929   0.997   4.643 -1.3509  2.7370 -2.6723
  796THF    H1313348   1.090   0.938   4.639 -1.6788 -0.3910 -0.2565
  797THF     O113349   0.756   0.328   4.862  0.4088  0.2227  0.3000
  797THF     C213350   0.751   0.398   4.740  0.0855 -0.0341 -0.8196
  797THF     C313351   0.642   0.242   4.866 -0.2166 -0.9298  0.4882
  797THF     H413352   0.852   0.443   4.716  2.0586  0.4509 -1.8482
  797THF     H513353   0.683   0.483   4.749  0.8973  0.1394  4.3671
  797THF     H613354   0.659   0.163   4.932  0.3925  1.4945  0.4190
  797THF     H713355   0.552   0.300   4.901 -2.0736  0.7391  0.1006
  797THF     C813356   0.621   0.204   4.716  0.0039  0.1556 -0.8010
  797THF     C913357   0.704   0.296   4.638  0.4360 -0.1711  0.8476
  797THF    H1013358   0.516   0.216   4.697 -0.4393  1.9006 -0.3803
  797THF    H1113359   0.646   0.099   4.699  3.0154  0.8354 -0.0397
  797THF    H1213360   0.799   0.253   4.591 -0.3214 -0.9454 -0.1012
  797THF    H1313361   0.645   0.337   4.558 -3.0430  0.1988  0.8189
  798THF     O113362   4.974   4.485   1.809  0.2342 -0.6108  0.7179
  798THF     C213363   4.952   4.383   1.713 -0.0741 -0.6758  0.1597
  798THF     C313364   5.119   4.482   1.829 -0.2534 -0.0127 -0.0590
  798THF     H413365   4.849   4.380   1.675 -3.0311 -1.0246  1.1044
  798THF     H513366   4.971   4.277   1.755  0.8331  1.8875  1.9700
  798THF     H613367   5.153   4.582   1.869 -1.8680 -0.0746 -1.4014
  798THF     H713368   5.147   4.403   1.903 -0.9650 -1.1801  1.9067
  798THF     C813369   5.181   4.463   1.693 -0.1062  0.3140 -0.2228
  798THF     C913370   5.067   4.402   1.609 -0.6309  0.6121 -0.6102
  798THF    H1013371   5.266   4.399   1.711 -0.5423 -0.0065 -0.6159
  798THF    H1113372   5.212   4.564   1.656 -1.9776  0.9915 -1.8115
  798THF    H1213373   5.032   4.467   1.536 -0.1781 -2.5926 -0.1668
  798THF    H1313374   5.096   4.310   1.555 -2.4902 -3.0756 -0.7259
  799THF     O113375   3.408   2.759   4.951 -0.0824 -0.2787 -0.1656
  799THF     C213376   3.522   2.821   5.009  0.5973  0.4933 -0.0908
  799THF     C313377   3.425   2.758   4.807  0.0620 -0.4285 -0.2171
  799THF     H413378   3.581   2.742   5.068  0.7683 -0.7108 -0.3279
  799THF     H513379   3.482   2.894   5.073  2.5666 -3.0994 -1.3674
  799THF     H613380   3.469   2.658   4.782 -0.8708  1.5876 -0.3933
  799THF     H713381   3.324   2.756   4.764  0.3219  0.8866  2.9895
  799THF     C813382   3.523   2.868   4.776 -0.3199  0.9626  0.4517
  799THF     C913383   3.607   2.877   4.906 -0.1360  0.0950  0.1705
  799THF    H1013384   3.474   2.957   4.755  3.1681  0.9864 -0.2902
  799THF    H1113385   3.582   2.856   4.680  0.4440  1.2075 -4.7499
  799THF    H1213386   3.702   2.823   4.894  2.1150  2.8260 -0.8306
  799THF    H1313387   3.627   2.982   4.928  0.2652  0.5281  0.0484
  800THF     O113388   3.299   1.638   3.125  0.8561  0.1331 -0.1697
  800THF     C213389   3.430   1.651   3.079  0.0038 -0.0110 -0.3905
  800THF     C313390   3.226   1.746   3.067  0.0202  0.2894 -0.4987
  800THF     H413391   3.427   1.609   2.974 -2.4142  0.2219  0.8979
  800THF     H513392   3.499   1.596   3.152  0.9996  1.4052  2.1317
  800THF     H613393   3.201   1.724   2.962 -2.1295  1.4343  0.8608
  800THF     H713394   3.126   1.765   3.106 -1.0289  2.5961 -1.8259
  800THF     C813395   3.314   1.868   3.072 -0.3221  0.6434  0.1803
  800THF     C913396   3.453   1.803   3.083 -0.5115  0.1156 -0.5653
  800THF    H1013397   3.299   1.920   3.165 -1.6290 -0.6605  0.5174
  800THF    H1113398   3.288   1.950   3.002 -1.3542 -0.1520  1.1827
  800THF    H1213399   3.522   1.850   3.018 -0.8928 -1.0840  2.3774
  800THF    H1313400   3.491   1.824   3.182  1.1633  0.4253 -1.6913
  801THF     O113401   0.958   4.673   1.358 -0.9034 -0.0273  0.8036
  801THF     C213402   0.942   4.735   1.238  0.4056  0.3112  0.2164
  801THF     C313403   1.032   4.766   1.443  0.0425 -0.1827 -0.5472
  801THF     H413404   0.852   4.795   1.264  0.2129  1.4521 -0.9775
  801THF     H513405   0.918   4.658   1.157  1.8799 -0.5492 -4.6448
  801THF     H613406   0.966   4.844   1.489  1.1178 -2.2535  2.2951
  801THF     H713407   1.076   4.713   1.525  3.0147 -3.2957  0.1338
  801THF     C813408   1.142   4.813   1.346 -0.5951  0.1849  0.0500
  801THF     C913409   1.065   4.816   1.217  0.3025  0.2333 -0.0111
  801THF    H1013410   1.222   4.742   1.352 -0.9263  1.1172  0.6561
  801THF    H1113411   1.197   4.902   1.374 -0.0927  0.6815  0.4285
  801THF    H1213412   1.032   4.917   1.193  0.0685 -2.2289  1.4787
  801THF    H1313413   1.125   4.774   1.140 -2.0567  0.4724 -0.4613
  802THF     O113414   3.109   3.500   2.431  0.1047 -0.1532  0.4658
  802THF     C213415   3.108   3.420   2.314  0.7438  0.1260 -0.0031
  802THF     C313416   3.041   3.619   2.413 -0.1003 -0.1442  0.1054
  802THF     H413417   3.012   3.369   2.321 -0.2251 -1.6875  0.9677
  802THF     H513418   3.201   3.353   2.308  2.6087  0.7526  0.3426
  802THF     H613419   2.938   3.598   2.435 -3.7351  0.1261 -1.1271
  802THF     H713420   3.082   3.685   2.488  0.5813  0.1440 -0.0850
  802THF     C813421   3.072   3.659   2.267  0.1476 -0.3556  0.2623
  802THF     C913422   3.125   3.526   2.210  0.2976  0.6032 -0.1566
  802THF    H1013423   3.141   3.745   2.256 -1.9755  0.4275 -1.2730
  802THF    H1113424   2.972   3.680   2.225 -0.1146  3.1743 -0.8931
  802THF    H1213425   3.058   3.485   2.126 -0.6367 -1.3143  1.0885
  802THF    H1313426   3.226   3.533   2.175  0.6606  0.4300 -0.6522
  803THF     O113427   3.712   3.623   3.229  0.3184  0.2317 -0.7932
  803THF     C213428   3.802   3.523   3.277  0.2455  0.7114 -0.6098
  803THF     C313429   3.583   3.601   3.286  0.2000  0.2269 -0.4522
  803THF     H413430   3.831   3.552   3.379 -1.4663 -1.0606  0.6378
  803THF     H513431   3.887   3.513   3.215 -0.1261 -0.9975  0.1451
  803THF     H613432   3.602   3.619   3.391  1.6540  0.2523  1.0923
  803THF     H713433   3.520   3.675   3.237 -0.7454  2.5946 -2.0987
  803THF     C813434   3.564   3.452   3.263  0.2526  0.3570  0.1671
  803THF     C913435   3.706   3.395   3.275  0.2312  0.1314  0.3132
  803THF    H1013436   3.532   3.428   3.151  2.7335  5.4505 -1.7384
  803THF    H1113437   3.499   3.405   3.331  0.0773 -0.6413 -2.3098
  803THF    H1213438   3.711   3.327   3.361  1.4900  1.1909  0.6108
  803THF    H1313439   3.729   3.345   3.182 -1.1023  1.5263  1.3484
  804THF     O113440   3.829   4.162   3.434  0.0995  0.2252  0.0510
  804THF     C213441   3.703   4.113   3.461 -0.0243 -0.2701  0.6797
  804THF     C313442   3.913   4.054   3.405  0.0580  0.2817  0.3347
  804THF     H413443   3.618   4.183   3.439  0.7026 -0.8632  0.5006
  804THF     H513444   3.706   4.092   3.563 -2.6820 -1.4209 -1.4889
  804THF     H613445   3.970   4.066   3.316 -3.5666  0.4488 -0.0289
  804THF     H713446   3.996   4.051   3.475  1.9353 -0.4023 -0.2153
  804THF     C813447   3.827   3.928   3.395  0.0734 -0.1374 -0.0528
  804THF     C913448   3.687   3.977   3.384 -0.1540 -0.1285  0.1647
  804THF    H1013449   3.840   3.871   3.485  2.7523 -2.8719  0.4975
  804THF    H1113450   3.854   3.859   3.320 -2.4875 -1.8758  0.8113
  804THF    H1213451   3.664   3.989   3.278  1.4526 -1.2051 -1.7072
  804THF    H1313452   3.616   3.904   3.420 -0.4292 -1.2817 -1.1552
  805THF     O113453   4.497   0.792   1.819 -0.1888 -0.1252 -0.0040
  805THF     C213454   4.422   0.716   1.730  0.3509 -0.5639  0.1553
  805THF     C313455   4.458   0.768   1.951 -0.1188 -0.0979 -0.3891
  805THF     H413456   4.474   0.714   1.633 -1.5765  3.4109  0.6774
  805THF     H513457   4.321   0.756   1.716 -0.3061 -1.6098 -1.9598
  805THF     H613458   4.541   0.765   2.024 -0.1192  0.3162 -1.0287
  805THF     H713459   4.396   0.855   1.989 -1.5641 -3.1921  0.1324
  805THF     C813460   4.386   0.639   1.956 -0.1331  0.1376 -0.9294
  805THF     C913461   4.416   0.588   1.814  0.1158  0.5769 -0.6729
  805THF    H1013462   4.280   0.662   1.959  1.8545  0.6717 -0.4765
  805THF    H1113463   4.412   0.564   2.036  1.2027 -1.4227 -2.4788
  805THF    H1213464   4.510   0.525   1.820  0.6076  1.0184  1.6684
  805THF    H1313465   4.352   0.510   1.776  3.3529  1.1812  0.1791
  806THF     O113466   2.919   2.761   4.425 -0.3116 -0.3791  0.0389
  806THF     C213467   3.025   2.705   4.500  0.9609 -0.6719 -0.1600
  806THF     C313468   2.861   2.872   4.490 -0.7989 -0.0591  0.1300
  806THF     H413469   3.108   2.660   4.441  0.3850 -1.3413  1.6169
  806THF     H513470   2.991   2.618   4.563  0.8283  2.0937  2.2559
  806THF     H613471   2.812   2.938   4.422  1.5075  1.4438  3.2212
  806THF     H713472   2.803   2.835   4.571  2.9021  0.0056 -1.7016
  806THF     C813473   2.976   2.943   4.555  0.2746 -0.3069 -0.3072
  806THF     C913474   3.065   2.829   4.593 -0.5550  0.3401  0.3665
  806THF    H1013475   2.950   3.009   4.642 -2.9769 -0.4830  0.8991
  806THF    H1113476   3.020   3.006   4.473  0.6679 -0.2976 -1.6687
  806THF    H1213477   3.162   2.858   4.562 -1.5730 -3.4762  2.3009
  806THF    H1313478   3.053   2.800   4.696  0.1401  2.4844 -0.8589
  807THF     O113479   1.198   4.714   0.867 -0.3090  0.1553  0.0801
  807THF     C213480   1.059   4.717   0.827 -0.2401 -0.0938 -0.0282
  807THF     C313481   1.273   4.745   0.752  0.0572 -0.6307  0.1545
  807THF     H413482   1.002   4.710   0.915  0.9576 -0.9802  0.0919
  807THF     H513483   1.063   4.619   0.773 -1.0955  1.8962 -0.8382
  807THF     H613484   1.375   4.780   0.779 -0.5344 -1.2428  0.1233
  807THF     H713485   1.281   4.672   0.672  0.4670  1.8737  0.0662
  807THF     C813486   1.193   4.859   0.679  0.1229  0.2528 -0.7991
  807THF     C913487   1.059   4.849   0.761  0.6273 -0.4802 -0.6613
  807THF    H1013488   1.173   4.837   0.573 -2.3804  2.0282  3.0477
  807THF    H1113489   1.243   4.956   0.685  1.7216  2.4389  2.2408
  807THF    H1213490   1.040   4.928   0.832 -0.5431 -0.7739 -0.1489
  807THF    H1313491   0.968   4.863   0.691  0.6274 -0.1928 -0.5236
  808THF     O113492   1.023   3.839   4.090 -0.0340  0.2810 -0.7032
  808THF     C213493   1.149   3.902   4.122  0.1337  0.2876 -0.0718
  808THF     C313494   0.932   3.864   4.192 -0.0111  0.1012 -0.8223
  808THF     H413495   1.192   3.970   4.050 -0.4201  0.7362  1.2477
  808THF     H513496   1.229   3.833   4.132 -1.9247  3.1936  1.9615
  808THF     H613497   0.861   3.947   4.164  1.2886  0.5573 -2.1936
  808THF     H713498   0.880   3.773   4.210 -3.1722  5.0727 -2.1756
  808THF     C813499   1.008   3.899   4.315 -0.5074 -0.7315  0.3193
  808THF     C913500   1.128   3.973   4.262  0.6423 -0.8077 -0.0445
  808THF    H1013501   1.046   3.808   4.368  1.5938  2.5451  0.0656
  808THF    H1113502   0.951   3.954   4.386  0.9295 -0.2299 -0.4476
  808THF    H1213503   1.105   4.075   4.233  0.8974 -1.2548 -1.0956
  808THF    H1313504   1.221   3.974   4.326  0.7384  0.9470 -1.5144
  809THF     O113505   5.487   4.142   0.550 -0.3269 -0.3304 -0.4193
  809THF     C213506   5.486   4.047   0.652  0.3562 -0.1364 -0.0176
  809THF     C313507   5.596   4.234   0.575  0.1425 -0.2979  0.4912
  809THF     H413508   5.538   3.949   0.647  2.1855 -1.6060 -0.2957
  809THF     H513509   5.379   4.012   0.682 -0.7330 -1.2608 -0.6148
  809THF     H613510   5.686   4.186   0.540  2.0892  1.1488  1.1396
  809THF     H713511   5.570   4.329   0.534  0.0216  2.0656  0.8075
  809THF     C813512   5.604   4.245   0.731  0.0200  0.7033  0.2459
  809THF     C913513   5.566   4.102   0.770  0.3219 -0.0821 -0.2281
  809THF    H1013514   5.528   4.309   0.769  1.0392  2.7949 -1.1839
  809THF    H1113515   5.694   4.293   0.776 -0.8470 -1.4711  1.9368
  809THF    H1213516   5.655   4.035   0.768 -0.7640 -2.0911 -0.7954
  809THF    H1313517   5.514   4.094   0.870  0.3104 -0.1723  0.6164
  810THF     O113518   0.465   2.130   0.971 -0.4735  0.0016  0.2416
  810THF     C213519   0.592   2.139   0.910 -0.1656  0.1468  0.4126
  810THF     C313520   0.490   2.104   1.106  0.2023 -0.8860  0.1270
  810THF     H413521   0.595   2.196   0.815  1.4225  0.0672 -0.0809
  810THF     H513522   0.628   2.039   0.889 -0.5410  0.9112 -1.4592
  810THF     H613523   0.402   2.135   1.168 -2.2256 -2.5778  0.6082
  810THF     H713524   0.500   1.997   1.125 -1.9189  0.0739  1.7886
  810THF     C813525   0.606   2.189   1.148  0.1649  0.1655  0.1162
  810THF     C913526   0.692   2.204   1.016 -0.2888  0.6668  0.1638
  810THF    H1013527   0.656   2.153   1.240  3.1054  0.8455  2.4232
  810THF    H1113528   0.562   2.284   1.174 -1.3865 -0.2652 -1.0477
  810THF    H1213529   0.713   2.311   0.998 -0.5479  0.1378  0.4173
  810THF    H1313530   0.791   2.144   1.022  0.5346 -1.2865  1.0323
  811THF     O113531   2.750   4.861   3.014 -0.0470 -0.3583  0.5102
  811THF     C213532   2.732   4.987   2.955 -0.7031 -0.5356 -0.9402
  811THF     C313533   2.891   4.826   2.995  0.2068 -0.4039  0.1845
  811THF     H413534   2.784   5.068   3.011  0.9756 -0.6959 -0.2677
  811THF     H513535   2.631   5.022   2.958  1.2185  1.5584 -0.8424
  811THF     H613536   2.953   4.882   3.067 -2.5580 -1.2946 -0.9869
  811THF     H713537   2.919   4.719   3.005  2.8606  0.8740  2.0549
  811THF     C813538   2.925   4.875   2.850 -0.3481  0.4621 -0.6081
  811THF     C913539   2.819   4.986   2.829 -0.5221 -0.5928 -0.6562
  811THF    H1013540   2.928   4.791   2.786  0.2181  1.5203 -1.8702
  811THF    H1113541   3.027   4.917   2.845  0.4477 -1.4746 -0.1810
  811THF    H1213542   2.858   5.085   2.803 -0.4822  1.5139 -0.3458
  811THF    H1313543   2.754   4.969   2.744  1.7905  0.4073  1.3262
  812THF     O113544   3.544   2.953   5.349  0.0395  0.5992  0.3749
  812THF     C213545   3.598   3.070   5.408 -0.3319  0.0470 -0.3034
  812THF     C313546   3.649   2.858   5.331  0.3031  0.2149 -0.2849
  812THF     H413547   3.521   3.126   5.462  0.0430  0.5409 -1.3756
  812THF     H513548   3.648   3.137   5.336 -3.1256  2.1124 -0.0332
  812THF     H613549   3.598   2.769   5.357  1.7909  3.4296 -1.2021
  812THF     H713550   3.681   2.848   5.230  0.1701 -0.3385 -0.6205
  812THF     C813551   3.761   2.900   5.423  0.3798  0.3729  0.2261
  812THF     C913552   3.696   3.012   5.512  0.2892  0.1436  0.6203
  812THF    H1013553   3.840   2.939   5.366  1.4558  0.7448  1.7131
  812THF    H1113554   3.800   2.814   5.474  2.0225 -0.2043  0.9560
  812THF    H1213555   3.642   2.974   5.601  2.0522  0.1308 -0.2993
  812THF    H1313556   3.773   3.078   5.539  0.5110 -2.3628 -0.2395
  813THF     O113557   0.649   4.276   4.164  0.3344 -0.0802 -0.1493
  813THF     C213558   0.693   4.232   4.289  0.1000  0.4411  0.4101
  813THF     C313559   0.732   4.377   4.120 -0.7072  0.4407 -0.1833
  813THF     H413560   0.663   4.132   4.311  0.9290 -2.6328  1.5215
  813THF     H513561   0.633   4.292   4.364 -2.9018 -1.0148  1.7598
  813THF     H613562   0.744   4.391   4.010 -0.5403 -2.0571 -1.2390
  813THF     H713563   0.685   4.465   4.152  4.2466 -3.2822  1.1848
  813THF     C813564   0.868   4.347   4.182  0.2540 -0.9615  0.1933
  813THF     C913565   0.845   4.252   4.298 -0.8659  0.2279  0.3760
  813THF    H1013566   0.915   4.434   4.231 -0.3560 -1.4030 -1.3151
  813THF    H1113567   0.936   4.305   4.109  0.0853 -0.5101 -0.6108
  813THF    H1213568   0.911   4.169   4.303  0.8113 -0.9367 -1.1274
  813THF    H1313569   0.862   4.296   4.392 -0.4749 -0.3508 -3.3311
  814THF     O113570   3.016   3.690   5.142 -0.0944 -0.1345 -0.1568
  814THF     C213571   2.896   3.739   5.202  0.2764  0.3718 -0.6451
  814THF     C313572   2.994   3.553   5.130 -0.5227  0.3986 -0.2867
  814THF     H413573   2.890   3.847   5.197  0.1852  0.3655 -0.1119
  814THF     H513574   2.877   3.721   5.309 -0.6083 -0.9329  4.6557
  814THF     H613575   3.070   3.507   5.068 -2.2017 -0.3092 -1.1163
  814THF     H713576   2.996   3.503   5.225  0.2427 -1.3670  2.1774
  814THF     C813577   2.851   3.546   5.069 -0.1316  0.3214 -0.0563
  814THF     C913578   2.786   3.684   5.105 -0.0406 -0.6708 -0.5457
  814THF    H1013579   2.795   3.457   5.101  2.4756  0.3263  0.2144
  814THF    H1113580   2.856   3.545   4.962 -0.9388 -1.2722  0.6308
  814THF    H1213581   2.793   3.742   5.018  1.1982  0.2861 -4.1262
  814THF    H1313582   2.683   3.682   5.149 -0.2050  0.5648  0.9302
  815THF     O113583   2.926   1.209   2.779 -0.0475 -0.7255  0.1573
  815THF     C213584   2.989   1.110   2.698  0.1457  0.1661 -0.1536
  815THF     C313585   2.869   1.299   2.684 -0.3012  0.8460  0.1916
  815THF     H413586   2.926   1.023   2.703 -1.1543  1.5557  1.0481
  815THF     H513587   3.088   1.091   2.728 -0.1966  0.0883  1.8174
  815THF     H613588   2.769   1.337   2.707 -1.2393  2.9356 -0.0374
  815THF     H713589   2.940   1.389   2.685  1.4801 -0.1447  0.1308
  815THF     C813590   2.871   1.244   2.545 -0.6948 -0.1756  0.3889
  815THF     C913591   2.993   1.164   2.555  0.6742  0.8194 -0.8683
  815THF    H1013592   2.871   1.320   2.462 -1.5006  0.9176 -2.5756
  815THF    H1113593   2.781   1.188   2.535 -2.5657 -1.3672  2.2587
  815THF    H1213594   2.987   1.079   2.484  1.8224  0.0701 -0.0366
  815THF    H1313595   3.083   1.220   2.548 -2.4180  1.1524 -1.2318
  816THF     O113596   2.174   1.874   3.222  0.1863  0.5988 -0.2488
  816THF     C213597   2.266   1.982   3.250  0.1058 -0.0730 -0.0980
  816THF     C313598   2.160   1.854   3.078 -0.0570 -0.1262  0.1008
  816THF     H413599   2.337   1.941   3.322 -0.3841 -0.0682 -2.0257
  816THF     H513600   2.205   2.058   3.296  1.0367 -0.1306 -3.1914
  816THF     H613601   2.133   1.748   3.067  1.3223 -0.8510  0.2653
  816THF     H713602   2.087   1.926   3.036 -1.7450  1.2055  1.0167
  816THF     C813603   2.294   1.896   3.027  0.3259 -0.6843 -0.0859
  816THF     C913604   2.325   2.018   3.111  0.3913 -0.5438 -0.1814
  816THF    H1013605   2.307   1.913   2.919  0.8730 -0.1228  0.2487
  816THF    H1113606   2.365   1.820   3.052 -0.1132  0.8887 -0.3840
  816THF    H1213607   2.430   2.046   3.122 -0.5959  1.6427  0.4642
  816THF    H1313608   2.278   2.104   3.067 -0.2216  0.5936  1.2013
  817THF     O113609   1.986   3.954   4.827  0.1088  0.2102  0.7700
  817THF     C213610   2.097   3.902   4.747  0.2515 -0.3231  0.0748
  817THF     C313611   2.031   3.956   4.959 -0.2645  0.9443  0.3678
  817THF     H413612   2.092   3.928   4.645 -0.2464 -0.9147  1.7876
  817THF     H513613   2.107   3.800   4.767 -1.8166  1.3316  1.0850
  817THF     H613614   1.966   4.027   5.018  2.1564  2.1563 -2.5017
  817THF     H713615   2.014   3.855   5.010 -2.9117 -0.0797  0.7843
  817THF     C813616   2.181   3.999   4.955  0.5775  0.9972 -0.1043
  817THF     C913617   2.216   3.975   4.806 -0.5290  0.4904 -0.3941
  817THF    H1013618   2.238   3.938   5.031  4.4214 -0.4641  0.1239
  817THF    H1113619   2.186   4.111   4.981 -1.4466  1.2598  0.5604
  817THF    H1213620   2.232   4.069   4.753 -3.1888 -0.5849  0.6947
  817THF    H1313621   2.304   3.922   4.797 -2.3240  0.1056  0.0557
  818THF     O113622   4.942   4.777   5.053  0.0561  0.0722  0.1885
  818THF     C213623   5.025   4.736   5.163 -1.0741  0.5856  0.1733
  818THF     C313624   5.013   4.877   4.986 -0.4742 -0.2937 -0.0536
  818THF     H413625   5.007   4.621   5.183  0.4296 -2.0313 -1.5261
  818THF     H513626   5.013   4.792   5.258 -0.4542  0.3873  1.0252
  818THF     H613627   4.966   4.898   4.885 -2.8854  0.0370 -1.5550
  818THF     H713628   5.018   4.973   5.043 -0.6104  1.6851  0.2383
  818THF     C813629   5.156   4.823   4.976  0.1021  0.1016 -0.7059
  818THF     C913630   5.173   4.742   5.105  0.1606  1.1932  0.1124
  818THF    H1013631   5.228   4.905   4.981 -2.0006  1.3460  0.2340
  818THF    H1113632   5.169   4.761   4.883 -1.3235  0.5432  0.4650
  818THF    H1213633   5.195   4.633   5.080 -1.8246 -2.2535  2.6007
  818THF    H1313634   5.244   4.775   5.180 -0.5486 -0.4027 -1.3698
  819THF     O113635   4.383   5.182   5.436  0.5218  0.3232  0.0153
  819THF     C213636   4.449   5.076   5.366  0.5054  0.4048  0.2536
  819THF     C313637   4.357   5.143   5.568 -0.5963 -0.1500 -0.0628
  819THF     H413638   4.546   5.104   5.354 -0.0917 -0.9936 -1.9482
  819THF     H513639   4.408   5.069   5.265 -4.3413  0.1337 -1.3928
  819THF     H613640   4.392   5.218   5.638  0.8973 -1.0199  2.3940
  819THF     H713641   4.248   5.137   5.590 -1.2774 -1.8854  0.8168
  819THF     C813642   4.427   5.006   5.590 -0.2563  0.0240 -0.1287
  819THF     C913643   4.422   4.947   5.451  0.6614 -0.5007  0.6716
  819THF    H1013644   4.372   4.957   5.669  3.1371  0.8339  2.5830
  819THF    H1113645   4.530   5.024   5.610 -1.9891 -2.6766  1.7017
  819THF    H1213646   4.504   4.870   5.438  0.7030  0.6623 -0.0819
  819THF    H1313647   4.319   4.908   5.428  1.5148 -3.1407  1.1655
  820THF     O113648   2.051   2.606   3.255  0.0387 -0.2909 -0.0836
  820THF     C213649   2.123   2.664   3.361 -0.2945 -0.3664  0.4862
  820THF     C313650   2.135   2.599   3.144  0.5622  0.2802 -0.2966
  820THF     H413651   2.191   2.590   3.397  0.7806  0.4311  2.2379
  820THF     H513652   2.068   2.701   3.445  0.3185 -0.6813  1.0938
  820THF     H613653   2.179   2.499   3.159 -1.2544  0.7769  1.9213
  820THF     H713654   2.087   2.592   3.046 -1.5968  1.1868  0.3053
  820THF     C813655   2.228   2.717   3.152 -0.0106  0.5851 -0.6230
  820THF     C913656   2.213   2.775   3.290  0.7731 -0.2172 -0.1818
  820THF    H1013657   2.202   2.787   3.071  0.0310  0.6811  2.3458
  820THF    H1113658   2.324   2.681   3.132  0.7983  3.1363 -1.3890
  820THF    H1213659   2.302   2.801   3.347  3.1028  1.6235 -1.8934
  820THF    H1313660   2.154   2.863   3.282  2.1234 -0.0850 -1.6888
  821THF     O113661   2.085   0.699   4.484 -0.6873  0.1753  0.3274
  821THF     C213662   2.150   0.577   4.454 -0.2150 -0.3823  0.6228
  821THF     C313663   1.947   0.686   4.459 -0.0802 -0.4135  0.2480
  821THF     H413664   2.229   0.547   4.518  0.8658 -0.1978 -1.0639
  821THF     H513665   2.188   0.589   4.361 -1.3666  0.0381 -0.2511
  821THF     H613666   1.883   0.731   4.539  0.1000 -1.6191  1.2773
  821THF     H713667   1.929   0.726   4.362 -4.1736  2.7028 -0.1629
  821THF     C813668   1.908   0.538   4.458 -0.4617 -0.4534  0.4513
  821THF     C913669   2.039   0.470   4.468 -0.2556 -0.8084  0.3862
  821THF    H1013670   1.840   0.514   4.378 -1.2298 -0.9244  1.0692
  821THF    H1113671   1.836   0.506   4.538 -0.5087 -0.4178  0.0124
  821THF    H1213672   2.047   0.432   4.573  1.0724  0.4793  1.0912
  821THF    H1313673   2.051   0.387   4.399 -1.5890  0.5284 -1.6498
  822THF     O113674   4.880   0.609   2.760 -0.6278 -0.5972  0.1940
  822THF     C213675   5.000   0.529   2.739  0.7253 -0.1128 -0.6759
  822THF     C313676   4.768   0.536   2.711  0.2825  0.1294  0.1817
  822THF     H413677   5.015   0.478   2.836 -1.3143 -2.4058  0.8376
  822THF     H513678   5.092   0.589   2.716  2.3285 -1.2947 -2.3623
  822THF     H613679   4.766   0.449   2.783  1.2758  0.9750  0.1801
  822THF     H713680   4.680   0.600   2.699 -0.5086 -1.0773 -2.5411
  822THF     C813681   4.817   0.475   2.582  0.4573 -0.2797 -0.5311
  822THF     C913682   4.968   0.449   2.611  1.0199 -0.2223 -0.6329
  822THF    H1013683   4.803   0.551   2.505  2.2190 -0.8312 -1.6580
  822THF    H1113684   4.763   0.381   2.559 -1.5805 -0.8872 -1.1721
  822THF    H1213685   4.995   0.344   2.629 -3.4253  1.0412 -1.2032
  822THF    H1313686   5.026   0.488   2.531  0.9177 -0.1390 -0.4843
  823THF     O113687   3.292   1.843   1.533 -0.0270 -0.2139  0.2574
  823THF     C213688   3.195   1.939   1.552  0.0443  0.5098 -0.2147
  823THF     C313689   3.294   1.766   1.647  0.3076  1.0862  0.3732
  823THF     H413690   3.124   1.946   1.470  1.7518 -1.7129  0.8985
  823THF     H513691   3.244   2.032   1.568  0.4485 -1.3492 -1.9596
  823THF     H613692   3.337   1.668   1.622 -0.8835  0.6698 -1.5302
  823THF     H713693   3.367   1.805   1.719 -2.1509 -0.7663  4.7296
  823THF     C813694   3.155   1.762   1.697  0.4410 -0.4459 -0.2332
  823THF     C913695   3.130   1.905   1.690  0.1392  0.0094  0.1661
  823THF    H1013696   3.165   1.727   1.802  2.4636 -0.8693  0.0997
  823THF    H1113697   3.094   1.696   1.623  0.0941  1.7724 -1.2867
  823THF    H1213698   3.030   1.924   1.688  1.2891 -0.0649 -2.3780
  823THF    H1313699   3.179   1.958   1.765 -0.1236  1.1612 -3.2850
  824THF     O113700   0.383   2.944   1.969 -0.3688  1.0337 -0.2840
  824THF     C213701   0.318   3.065   1.926  0.6039  0.1792 -0.2709
  824THF     C313702   0.289   2.838   1.943  0.3054  0.3762 -0.7121
  824THF     H413703   0.372   3.099   1.838 -0.9850 -0.2092  0.1997
  824THF     H513704   0.320   3.147   2.000  1.2999  1.1313 -0.2150
  824THF     H613705   0.345   2.758   1.901 -1.0650 -1.1657  1.0864
  824THF     H713706   0.234   2.794   2.027 -1.5464  2.2288  1.0228
  824THF     C813707   0.190   2.886   1.839 -1.0657  0.0648 -0.2552
  824THF     C913708   0.179   3.033   1.878 -0.6613  0.3691  0.2874
  824THF    H1013709   0.096   2.828   1.845 -1.2784  0.4524 -0.1920
  824THF    H1113710   0.216   2.867   1.730  1.6405  0.5334 -2.7769
  824THF    H1213711   0.136   3.090   1.803  2.0215 -0.8508  0.7680
  824THF    H1313712   0.113   3.037   1.966  0.7722 -1.7989  0.1320
  825THF     O113713   0.167   0.765   2.545  0.5750  0.1532  0.4062
  825THF     C213714   0.100   0.889   2.565  1.1859 -0.4609 -0.2473
  825THF     C313715   0.303   0.776   2.578 -0.3920  0.4098  0.1906
  825THF     H413716   0.029   0.872   2.644  1.5276 -0.5001 -1.4221
  825THF     H513717   0.046   0.921   2.472  0.7404  1.9351  1.4838
  825THF     H613718   0.306   0.749   2.680  1.9617  0.0069 -1.5851
  825THF     H713719   0.365   0.709   2.514  2.5431 -3.7924 -0.8780
  825THF     C813720   0.336   0.919   2.572  0.1338 -0.2602  0.4013
  825THF     C913721   0.208   0.988   2.613 -0.0800 -0.0446  0.0821
  825THF    H1013722   0.356   0.951   2.469 -2.0712  1.5048  1.8180
  825THF    H1113723   0.422   0.949   2.635  0.8460  1.6849  1.0260
  825THF    H1213724   0.196   0.989   2.713 -2.2026 -0.6321 -1.3028
  825THF    H1313725   0.190   1.084   2.568  2.4630 -0.2928 -2.2017
  826THF     O113726   3.163   5.121   3.104 -0.0773 -0.1864 -0.1800
  826THF     C213727   3.233   5.181   2.998 -0.0324  0.2675 -0.5870
  826THF     C313728   3.068   5.213   3.149  0.5435  0.9539  0.9072
  826THF     H413729   3.269   5.102   2.928 -0.7871 -1.0896  1.0224
  826THF     H513730   3.315   5.229   3.043  0.4888 -1.4551 -0.5223
  826THF     H613731   2.984   5.172   3.202  0.4822  2.4012 -0.3732
  826THF     H713732   3.117   5.283   3.216 -1.8928 -1.0111 -2.6560
  826THF     C813733   3.015   5.278   3.029 -0.1494 -0.0533 -0.6550
  826THF     C913734   3.130   5.276   2.931  1.4771 -0.7435  0.4732
  826THF    H1013735   2.976   5.375   3.032 -0.8455 -0.2280 -1.8672
  826THF    H1113736   2.935   5.225   2.979  2.0919 -2.3575  0.8405
  826THF    H1213737   3.097   5.226   2.840  1.9974  1.9289  1.7740
  826THF    H1313738   3.173   5.368   2.901 -1.2293 -0.5168  2.8813
  827THF     O113739   1.279   5.452   1.879 -0.7939 -0.6648  0.4999
  827THF     C213740   1.142   5.423   1.857 -0.8031  0.4319  0.3403
  827THF     C313741   1.326   5.344   1.955  0.4308  0.3803  0.4810
  827THF     H413742   1.128   5.332   1.797 -1.6530  1.3548 -0.5318
  827THF     H513743   1.089   5.498   1.811  3.2001  0.2861  0.8033
  827THF     H613744   1.317   5.249   1.896 -0.3713 -0.8965 -1.8475
  827THF     H713745   1.433   5.359   1.969 -1.9802  0.7531  0.3042
  827THF     C813746   1.225   5.340   2.073  0.5179  0.2902 -0.6550
  827THF     C913747   1.094   5.388   2.005  0.7803  0.2405  0.4648
  827THF    H1013748   1.261   5.406   2.153 -0.9086 -2.3068 -1.3687
  827THF    H1113749   1.223   5.234   2.111 -0.9914 -1.7359  0.8005
  827THF    H1213750   1.016   5.308   1.998 -0.1773  2.8281 -0.3942
  827THF    H1313751   1.053   5.478   2.049  3.3161 -0.7841  1.4463
  828THF     O113752   4.778   0.165   2.850  0.4042 -0.5007 -0.6975
  828THF     C213753   4.677   0.237   2.924  0.1348 -0.2441  0.1163
  828THF     C313754   4.716   0.076   2.766 -0.1419 -0.8772  0.0890
  828THF     H413755   4.693   0.341   2.960 -0.0159  1.7146 -0.5948
  828THF     H513756   4.673   0.179   3.017  0.0960 -0.1955 -0.0145
  828THF     H613757   4.738   0.109   2.665 -1.5505  0.4087 -0.8271
  828THF     H713758   4.744  -0.029   2.766 -1.5612 -3.0544  0.6200
  828THF     C813759   4.566   0.072   2.794  0.4018  0.1991 -0.2281
  828THF     C913760   4.541   0.205   2.849 -0.4827 -0.2682 -0.2223
  828THF    H1013761   4.545  -0.007   2.866 -1.5571 -0.6605 -3.5134
  828THF    H1113762   4.514   0.037   2.708 -0.3288 -2.9249  1.5784
  828THF    H1213763   4.515   0.271   2.765  0.4549 -0.3392 -1.7013
  828THF    H1313764   4.456   0.212   2.911  0.3612  0.2325 -1.8998
  829THF     O113765   0.491   0.929   5.449  0.1476  0.0624  0.4253
  829THF     C213766   0.620   0.994   5.434 -0.0028 -0.1767 -0.8629
  829THF     C313767   0.497   0.845   5.564 -0.0201 -0.3232 -0.2947
  829THF     H413768   0.632   1.089   5.487 -0.5800 -0.0108 -0.9812
  829THF     H513769   0.638   1.020   5.332 -0.1276  0.3896  0.0784
  829THF     H613770   0.469   0.910   5.646 -0.9853 -0.2507  1.3134
  829THF     H713771   0.420   0.763   5.553  2.7536 -1.9283 -0.6500
  829THF     C813772   0.647   0.805   5.572 -0.0039  0.6505  0.3420
  829THF     C913773   0.725   0.886   5.469 -0.5172 -0.3932  0.1415
  829THF    H1013774   0.665   0.694   5.559 -0.3113  0.8153  2.6664
  829THF    H1113775   0.681   0.821   5.674  1.6658 -1.0045 -0.8773
  829THF    H1213776   0.815   0.925   5.516  0.2322  2.4560  2.0521
  829THF    H1313777   0.770   0.839   5.378  3.8031  0.4978 -0.3739
  830THF     O113778   5.282   0.086   4.522  0.2201  0.2506  0.2422
  830THF     C213779   5.366   0.003   4.600 -0.1047 -0.2640 -0.5413
  830THF     C313780   5.281   0.212   4.577 -0.5519  0.0541  0.0067
  830THF     H413781   5.416  -0.064   4.533 -1.1439  2.3464  0.4310
  830THF     H513782   5.299  -0.052   4.673 -1.7344 -2.1411 -0.3645
  830THF     H613783   5.226   0.280   4.513  1.3307  1.2156 -1.6800
  830THF     H713784   5.218   0.209   4.676 -0.7535 -0.0286  0.9918
  830THF     C813785   5.425   0.236   4.610 -0.0426  0.4348 -0.1221
  830THF     C913786   5.461   0.098   4.675  0.3903  0.2550  0.4071
  830THF    H1013787   5.439   0.333   4.659 -1.0140  0.9667 -0.2647
  830THF    H1113788   5.483   0.240   4.516 -0.0513 -2.6214  0.5170
  830THF    H1213789   5.565   0.070   4.667  3.5033  2.5921 -0.0110
  830THF    H1313790   5.444   0.105   4.779 -1.7865 -0.4344  0.4645
  831THF     O113791   4.062   0.344   3.402 -0.0768  0.4980 -0.5906
  831THF     C213792   4.094   0.401   3.274  0.3892 -0.0335 -0.7223
  831THF     C313793   4.058   0.201   3.388 -0.1299 -0.7372 -1.3295
  831THF     H413794   4.197   0.437   3.274 -0.4928  0.5651  3.0697
  831THF     H513795   4.028   0.483   3.238 -2.5006  1.4543 -1.3741
  831THF     H613796   4.156   0.157   3.388 -0.9328  1.4975  0.6391
  831THF     H713797   3.989   0.151   3.462 -2.9080  0.2213 -0.3546
  831THF     C813798   4.003   0.179   3.248  0.1848 -0.2390  0.5243
  831THF     C913799   4.075   0.287   3.173  0.4151  0.5732 -0.2994
  831THF    H1013800   3.891   0.185   3.240  0.2470  0.3632  0.9903
  831THF    H1113801   4.036   0.086   3.201  0.0128 -1.6127  1.3571
  831THF    H1213802   4.177   0.264   3.143  1.4208  0.5755  0.5560
  831THF    H1313803   4.009   0.327   3.088  0.5689  3.4402 -0.3988
  832THF     O113804   3.329   0.728   4.462  0.3146  0.3003 -0.9984
  832THF     C213805   3.300   0.605   4.399 -0.3592  0.0052 -0.0755
  832THF     C313806   3.472   0.733   4.485 -0.6675  0.4449 -0.3899
  832THF     H413807   3.282   0.612   4.287  2.4296  0.4557 -0.6415
  832THF     H513808   3.211   0.561   4.440  0.4266 -0.1790  3.1223
  832THF     H613809   3.503   0.758   4.390 -2.1893  0.7528 -3.6021
  832THF     H713810   3.509   0.805   4.554  1.6998 -0.7142 -2.7710
  832THF     C813811   3.513   0.590   4.514 -0.0665 -0.2430 -0.1202
  832THF     C913812   3.422   0.515   4.424  0.0133 -0.2762 -0.6029
  832THF    H1013813   3.506   0.560   4.619 -0.3131 -1.7393  2.4147
  832THF    H1113814   3.616   0.578   4.480 -1.6194 -0.1570 -1.3158
  832THF    H1213815   3.475   0.504   4.327  0.2792 -0.1330 -1.1070
  832THF    H1313816   3.400   0.421   4.464  3.1510  1.0938 -0.1760
  833THF     O113817   5.436   2.990   5.257  0.1920 -0.2107  0.4941
  833THF     C213818   5.359   2.870   5.281 -0.5097  0.1336  0.2602
  833THF     C313819   5.534   2.979   5.359 -0.5640  0.0654 -0.4101
  833THF     H413820   5.294   2.842   5.194 -2.3874  0.4575  1.5009
  833THF     H513821   5.278   2.895   5.353 -1.0463  1.9769  1.1441
  833THF     H613822   5.617   3.043   5.346  0.8302  0.1515 -0.2616
  833THF     H713823   5.492   3.012   5.462 -0.1560  3.1596  1.1530
  833THF     C813824   5.580   2.842   5.359  0.0325 -0.1675 -0.6557
  833THF     C913825   5.450   2.765   5.340 -0.2117  0.3337 -0.6930
  833THF    H1013826   5.633   2.810   5.449 -0.7954 -2.1362 -1.3629
  833THF    H1113827   5.645   2.813   5.281  2.2362 -3.1063  0.5428
  833THF    H1213828   5.463   2.691   5.258 -0.8278 -1.4967  2.6141
  833THF    H1313829   5.415   2.700   5.420  0.0916  1.5061 -1.4427
  834THF     O113830   0.295   0.959   0.669 -0.5078  0.2928  0.0240
  834THF     C213831   0.251   0.944   0.537  0.5852 -0.2405 -0.2609
  834THF     C313832   0.246   1.086   0.717 -0.1080  0.4964 -0.0098
  834THF     H413833   0.147   0.905   0.537  2.2342 -1.7079 -0.0130
  834THF     H513834   0.312   0.874   0.479  0.9498 -0.8703 -1.6920
  834THF     H613835   0.139   1.083   0.761  1.7552 -3.0475  3.1075
  834THF     H713836   0.304   1.105   0.803 -1.5540  2.1924 -0.6236
  834THF     C813837   0.270   1.186   0.607 -0.3456  0.1744  0.2723
  834THF     C913838   0.255   1.092   0.488  0.2711  0.0035  0.2679
  834THF    H1013839   0.379   1.211   0.606  1.6197 -0.1920 -0.8935
  834THF    H1113840   0.198   1.267   0.611 -1.2951  0.9702 -2.8291
  834THF    H1213841   0.166   1.116   0.431  1.4425 -2.0862  2.1580
  834THF    H1313842   0.336   1.103   0.411 -0.8784 -2.9967 -0.0112
  835THF     O113843   2.918   2.992   3.597  0.1797  0.5241  0.0092
  835THF     C213844   2.995   2.955   3.708  0.6449  0.1512  0.3843
  835THF     C313845   2.986   3.101   3.538  0.1510  0.1350 -0.2590
  835THF     H413846   2.998   2.845   3.709  1.1422 -0.9780 -2.0734
  835THF     H513847   2.946   2.984   3.802  1.1633 -2.2146 -0.4372
  835THF     H613848   2.966   3.113   3.433  0.2670  2.3739  3.6623
  835THF     H713849   2.965   3.195   3.589  1.2140 -1.6721  1.0549
  835THF     C813850   3.138   3.063   3.553  0.9316  0.0394 -0.2840
  835THF     C913851   3.133   3.015   3.697  0.1114 -0.6660 -0.9944
  835THF    H1013852   3.203   3.154   3.552 -1.6288  0.8909  0.9895
  835THF    H1113853   3.167   2.985   3.486 -0.9522 -0.5043  0.7847
  835THF    H1213854   3.208   2.949   3.733 -0.3142 -0.2436 -0.5843
  835THF    H1313855   3.129   3.108   3.755 -1.3315  0.6147 -0.5086
  836THF     O113856   1.445   1.507   2.221  0.3083 -0.2397 -0.3439
  836THF     C213857   1.492   1.633   2.258 -0.2392 -0.2656 -0.2480
  836THF     C313858   1.305   1.512   2.188  0.1511  0.4564  0.3025
  836THF     H413859   1.504   1.701   2.178  1.7885  0.2959 -0.5823
  836THF     H513860   1.577   1.620   2.331 -3.2885 -0.8260 -0.2652
  836THF     H613861   1.294   1.512   2.080  4.2038  1.2625  0.6894
  836THF     H713862   1.259   1.426   2.234  3.1828 -0.5594 -0.5105
  836THF     C813863   1.252   1.645   2.241  0.1015  0.0620  0.0245
  836THF     C913864   1.368   1.693   2.332 -0.2063 -0.2366 -0.0060
  836THF    H1013865   1.154   1.626   2.287 -1.3163  2.4794  0.9280
  836THF    H1113866   1.237   1.705   2.158  1.9960 -0.9650  0.1614
  836THF    H1213867   1.385   1.804   2.329  4.6385  2.3130  0.7347
  836THF    H1313868   1.353   1.674   2.438 -0.7152  2.0082 -0.2533
  837THF     O113869   3.912   2.823   0.197  0.4874 -0.0870  0.1354
  837THF     C213870   3.874   2.823   0.331  0.4834 -0.2763  0.4773
  837THF     C313871   4.032   2.901   0.185  0.4187 -0.0900 -0.2763
  837THF     H413872   3.910   2.728   0.371 -1.8613 -1.0379 -4.1234
  837THF     H513873   3.767   2.824   0.336  1.0852  0.2266  1.6204
  837THF     H613874   4.126   2.839   0.203  1.2334  0.1773 -0.6615
  837THF     H713875   4.041   2.934   0.087  1.3308 -2.4482  0.2088
  837THF     C813876   4.014   3.009   0.296 -0.2661  0.2674  0.1831
  837THF     C913877   3.940   2.941   0.405  0.0372 -0.3744 -0.0628
  837THF    H1013878   3.957   3.093   0.265  1.8590  0.3576 -0.8741
  837THF    H1113879   4.114   3.046   0.339 -0.1308 -1.9471  2.9034
  837THF    H1213880   4.007   2.915   0.489  1.7371 -0.6961  0.8923
  837THF    H1313881   3.870   3.006   0.447 -0.0755 -0.6832  1.0086
  838THF     O113882   3.813   3.386   0.259 -0.2571  0.0739 -0.0363
  838THF     C213883   3.677   3.406   0.216 -0.1406 -0.4226 -0.5527
  838THF     C313884   3.813   3.383   0.402 -0.9138 -0.1962  0.3168
  838THF     H413885   3.661   3.355   0.125 -0.5047 -0.7876  3.3724
  838THF     H513886   3.654   3.518   0.190  1.6505  1.3612  1.0436
  838THF     H613887   3.906   3.352   0.450 -0.5591 -1.4967 -1.1557
  838THF     H713888   3.787   3.488   0.435  0.4764 -0.4694 -0.4216
  838THF     C813889   3.701   3.287   0.429  0.3831  0.1623 -0.3042
  838THF     C913890   3.599   3.321   0.323 -0.2444 -0.4965 -0.5280
  838THF    H1013891   3.657   3.296   0.529  2.1476 -0.2099  0.9563
  838THF    H1113892   3.740   3.179   0.429  0.9054  1.2198 -0.2768
  838THF    H1213893   3.560   3.223   0.275 -0.7081 -0.6010  2.8608
  838THF    H1313894   3.508   3.368   0.368 -2.2427 -1.8195 -0.4811
  839THF     O113895   1.776   4.369   4.919  0.7471 -0.0965  0.2074
  839THF     C213896   1.825   4.501   4.906 -0.8972  0.0009 -0.5919
  839THF     C313897   1.819   4.318   5.044 -0.9810  0.1041  0.4834
  839THF     H413898   1.756   4.566   4.960 -1.0977 -1.3505 -0.9578
  839THF     H513899   1.837   4.529   4.805  2.7336  0.2928  0.5955
  839THF     H613900   1.756   4.365   5.120 -2.2290  3.5071 -1.4014
  839THF     H713901   1.823   4.210   5.053  0.5400 -0.2730 -2.0851
  839THF     C813902   1.960   4.372   5.062  0.4354 -0.5642 -0.9721
  839THF     C913903   1.953   4.510   4.998 -0.0136  0.5426  0.2348
  839THF    H1013904   2.025   4.307   5.002 -0.0492  0.7798 -0.3226
  839THF    H1113905   1.982   4.364   5.169 -3.1814  0.6327  0.7713
  839THF    H1213906   1.942   4.587   5.078 -1.9597 -0.2426 -0.8539
  839THF    H1313907   2.043   4.527   4.943 -2.5308  0.0503  1.8861
  840THF     O113908   1.768   2.929   5.329  0.0924  0.1157  0.1160
  840THF     C213909   1.704   2.822   5.395 -0.0134  0.3546 -1.0295
  840THF     C313910   1.679   3.042   5.311 -0.0594  1.0516  0.3052
  840THF     H413911   1.767   2.750   5.442 -0.2365  0.6793  1.0833
  840THF     H513912   1.645   2.764   5.319 -1.9976  0.7947  1.0509
  840THF     H613913   1.731   3.132   5.292 -0.6702  0.0666  0.6594
  840THF     H713914   1.616   3.027   5.219 -0.3900 -0.4162 -2.3348
  840THF     C813915   1.581   3.035   5.429  0.2705  0.3180  0.6266
  840THF     C913916   1.606   2.898   5.496 -0.2403 -0.2028 -0.2257
  840THF    H1013917   1.482   3.044   5.405  1.2211 -1.2905  0.2413
  840THF    H1113918   1.617   3.113   5.500 -0.9478  1.3298  0.9268
  840THF    H1213919   1.642   2.915   5.591  2.7000 -0.4290  0.4827
  840THF    H1313920   1.504   2.841   5.514  1.1249 -0.5035  0.5610
  841THF     O113921   5.025   3.275   2.317  0.5057  0.0214 -0.4090
  841THF     C213922   5.098   3.185   2.412  0.1527 -0.5901  0.6637
  841THF     C313923   4.886   3.256   2.352  0.1816 -0.1594 -0.5232
  841THF     H413924   5.107   3.237   2.509  0.7888  1.1029 -0.2541
  841THF     H513925   5.190   3.158   2.364 -2.5786  0.8423 -3.3786
  841THF     H613926   4.861   3.306   2.440  0.2953 -3.2783 -0.9340
  841THF     H713927   4.821   3.299   2.281 -2.3335  0.2374  0.5414
  841THF     C813928   4.872   3.107   2.376 -0.3595 -0.5670  0.7899
  841THF     C913929   5.012   3.060   2.406 -0.0629  0.6924 -0.7316
  841THF    H1013930   4.834   3.066   2.286  1.1321 -0.9782  0.3039
  841THF    H1113931   4.805   3.089   2.461  0.9342  2.0306 -0.6635
  841THF    H1213932   5.018   3.010   2.498  2.0553 -0.9260 -1.1154
  841THF    H1313933   5.039   2.987   2.328 -1.3264  2.5568 -0.6133
  842THF     O113934   4.879   1.719   3.879  0.3284  0.2432 -0.0784
  842THF     C213935   4.950   1.720   4.004  0.6365 -0.0775 -0.0847
  842THF     C313936   4.967   1.768   3.779  0.0926 -0.4524  0.0410
  842THF     H413937   4.922   1.655   4.080  0.6250 -1.3898 -0.0448
  842THF     H513938   4.952   1.817   4.044  0.6317 -0.8398  0.3018
  842THF     H613939   4.943   1.726   3.688  1.1149 -0.5410 -1.2060
  842THF     H713940   4.958   1.877   3.790  1.8182  1.9734  0.1073
  842THF     C813941   5.101   1.709   3.820  0.5584 -0.9921 -0.0163
  842THF     C913942   5.092   1.691   3.966 -0.3909 -0.1781 -0.8515
  842THF    H1013943   5.172   1.788   3.800 -1.8002  2.0026  1.6174
  842THF    H1113944   5.108   1.615   3.766  1.5308 -1.2489 -4.9703
  842THF    H1213945   5.111   1.587   3.995 -0.9940  1.5217  2.4589
  842THF    H1313946   5.157   1.753   4.026  0.8814 -1.7159  0.8319
  843THF     O113947   0.871   3.179   0.956  0.0833 -0.0444 -0.2157
  843THF     C213948   0.995   3.232   1.000  0.0489  0.0560 -0.5674
  843THF     C313949   0.770   3.276   0.980  0.6106 -0.0193 -0.2393
  843THF     H413950   1.076   3.207   0.929 -1.5673 -2.2625  1.0562
  843THF     H513951   1.022   3.189   1.097 -0.1942 -1.2040  2.1703
  843THF     H613952   0.727   3.312   0.889 -1.0535 -1.1354  2.1102
  843THF     H713953   0.688   3.244   1.041  1.1520  3.3978  1.6969
  843THF     C813954   0.837   3.394   1.042  0.0744  0.4298  0.6233
  843THF     C913955   0.977   3.380   0.983  0.3197  0.6710  1.0840
  843THF    H1013956   0.851   3.398   1.146 -1.5473  2.1470  0.5698
  843THF    H1113957   0.784   3.488   1.019  0.1132 -1.3221  0.4712
  843THF    H1213958   0.973   3.409   0.873 -1.5856 -0.6420 -0.0042
  843THF    H1313959   1.046   3.447   1.040  2.2214  3.5082  0.2583
  844THF     O113960   2.049   2.378   2.828  0.4083 -0.6654  0.2549
  844THF     C213961   2.139   2.299   2.900  0.1310  0.1174  0.9159
  844THF     C313962   2.061   2.338   2.688 -0.2004 -0.2398  0.0141
  844THF     H413963   2.093   2.203   2.909 -1.4128 -0.9718  2.6867
  844THF     H513964   2.156   2.329   3.004  0.5939 -0.9391  1.4758
  844THF     H613965   2.006   2.243   2.680  0.5513  0.9894  0.9178
  844THF     H713966   2.012   2.409   2.617 -2.2533  0.0116  0.0538
  844THF     C813967   2.209   2.310   2.662  0.1744 -0.2028  0.5979
  844THF     C913968   2.262   2.304   2.809 -0.3019 -0.0736  1.0509
  844THF    H1013969   2.253   2.399   2.632  0.1505 -0.5588  0.5241
  844THF    H1113970   2.220   2.214   2.605  2.3927 -1.4807  1.6456
  844THF    H1213971   2.322   2.217   2.835  2.1045  2.9396 -0.0197
  844THF    H1313972   2.332   2.388   2.827 -0.2502  3.2114  1.2735
  845THF     O113973   1.978   3.067   4.837  0.2104 -0.8118 -0.7064
  845THF     C213974   2.020   3.185   4.768 -0.9854 -0.9759 -0.1281
  845THF     C313975   1.952   3.111   4.972  0.0430  1.0068  0.0092
  845THF     H413976   1.930   3.239   4.736 -0.9299 -0.4742 -0.2701
  845THF     H513977   2.073   3.147   4.680  1.8899  2.6618 -0.2691
  845THF     H613978   1.847   3.131   4.982  0.2414  0.5574  1.9989
  845THF     H713979   1.974   3.031   5.036  0.1022  0.4048  0.9728
  845THF     C813980   2.034   3.236   4.998  0.6670 -0.3502 -0.4139
  845THF     C913981   2.109   3.264   4.867 -0.6983 -0.2575 -0.2922
  845THF    H1013982   2.105   3.207   5.082  2.0769 -1.7621 -2.6906
  845THF    H1113983   1.965   3.317   5.029  2.9445 -0.5957 -0.1387
  845THF    H1213984   2.107   3.373   4.849  1.2731 -1.0459 -0.8464
  845THF    H1313985   2.214   3.227   4.863  0.6316 -1.8259 -2.4958
  846THF     O113986   5.244   1.598   1.186  0.0080 -0.4067  0.3206
  846THF     C213987   5.128   1.644   1.257 -0.3883 -0.1905 -0.0674
  846THF     C313988   5.257   1.461   1.225  0.2080  0.4370  0.2830
  846THF     H413989   5.086   1.734   1.211 -1.9728 -0.9815  4.4989
  846THF     H513990   5.166   1.676   1.355 -3.5371 -0.3799 -0.6714
  846THF     H613991   5.307   1.409   1.145  0.4880 -0.7468  2.6414
  846THF     H713992   5.315   1.450   1.312  0.7146  1.8816 -2.6210
  846THF     C813993   5.119   1.406   1.236 -0.9993 -0.0603  0.2346
  846THF     C913994   5.033   1.522   1.284 -0.1050  0.0383 -0.2887
  846THF    H1013995   5.121   1.308   1.289  1.0620  2.2618  1.4655
  846THF    H1113996   5.083   1.398   1.135 -2.5519  0.8337  1.1648
  846THF    H1213997   4.939   1.529   1.226  0.2122  1.0192 -0.7918
  846THF    H1313998   5.012   1.521   1.394  1.7847 -0.0654  1.3426
  847THF     O113999   3.592   5.451   0.823  0.0899  0.5019 -0.4207
  847THF     C214000   3.495   5.376   0.904 -0.4061 -0.2968  0.1541
  847THF     C314001   3.560   5.409   0.690 -0.3996 -0.8048  0.7366
  847THF     H414002   3.484   5.425   1.006 -0.6256  0.3814  0.9361
  847THF     H514003   3.527   5.274   0.917 -1.3368 -1.9586  1.1361
  847THF     H614004   3.594   5.477   0.618 -2.7054 -0.5184 -1.5997
  847THF     H714005   3.590   5.303   0.652 -1.3075  1.1674 -4.0772
  847THF     C814006   3.404   5.417   0.675  0.2071 -0.0616 -0.3187
  847THF     C914007   3.369   5.379   0.812 -0.6693  0.8089 -0.3501
  847THF    H1014008   3.363   5.354   0.591 -3.7850  1.3301  1.4533
  847THF    H1114009   3.389   5.523   0.652 -1.3068 -1.1379  2.1800
  847THF    H1214010   3.292   5.445   0.857 -3.5390  1.3010  0.4626
  847THF    H1314011   3.317   5.289   0.822  1.8810  0.5368  0.3910
  848THF     O114012   4.304   4.695   4.146 -0.0395  0.1063  0.4054
  848THF     C214013   4.216   4.590   4.171 -0.4813 -0.2474  0.1106
  848THF     C314014   4.425   4.640   4.087  0.4547 -0.3670 -0.2286
  848THF     H414015   4.181   4.566   4.073  0.8299 -0.7103 -1.5708
  848THF     H514016   4.136   4.624   4.238 -2.2727  1.0594  0.9956
  848THF     H614017   4.399   4.618   3.984  1.5375  0.0482  0.8754
  848THF     H714018   4.502   4.721   4.083  0.3536 -1.0279 -0.1250
  848THF     C814019   4.453   4.519   4.169  0.1183 -0.2257 -0.1098
  848THF     C914020   4.309   4.486   4.226  0.0203 -0.4657  0.7891
  848THF    H1014021   4.513   4.549   4.261  1.1531 -1.2081  1.1186
  848THF    H1114022   4.492   4.432   4.119 -0.0444  0.4242  1.4077
  848THF    H1214023   4.274   4.387   4.208  0.5643  3.2903  1.6993
  848THF    H1314024   4.300   4.510   4.328 -2.7307  0.0037 -0.6454
  849THF     O114025   1.969   4.432   0.105 -0.3765  0.4380 -0.1931
  849THF     C214026   1.889   4.339   0.041 -0.2544  0.2663  0.0613
  849THF     C314027   1.896   4.558   0.106 -0.2216  0.5389  0.2597
  849THF     H414028   1.912   4.242   0.080 -3.5378  1.8669  0.7353
  849THF     H514029   1.887   4.341  -0.069  3.6819  0.0048  0.6595
  849THF     H614030   1.937   4.611   0.192  1.0187  0.2925 -1.2520
  849THF     H714031   1.895   4.596   0.008 -0.3985 -0.2090  0.9088
  849THF     C814032   1.749   4.511   0.138  0.1694 -0.8580  0.3134
  849THF     C914033   1.738   4.373   0.083  0.3323  0.1592 -1.0045
  849THF    H1014034   1.666   4.574   0.098 -2.5132  1.6459 -0.6577
  849THF    H1114035   1.720   4.511   0.246  1.4515 -0.3606  0.0604
  849THF    H1214036   1.707   4.312   0.163  1.2314  2.8992  0.0100
  849THF    H1314037   1.667   4.368  -0.001 -2.0650 -0.3195 -2.0891
  850THF     O114038   1.537   0.393   4.754  0.1966 -0.1963 -0.8558
  850THF     C214039   1.482   0.331   4.868  0.6717 -0.3720  0.1600
  850THF     C314040   1.629   0.490   4.790 -0.0529 -0.7817  0.0502
  850THF     H414041   1.543   0.248   4.909 -1.8465 -0.5450  0.3118
  850THF     H514042   1.391   0.277   4.841  3.1201 -0.7772  0.6135
  850THF     H614043   1.724   0.446   4.819 -3.9389  1.1916  5.8297
  850THF     H714044   1.636   0.566   4.714  0.8588  0.6336 -1.4048
  850THF     C814045   1.581   0.533   4.933  0.2684  0.8601 -0.1553
  850THF     C914046   1.466   0.446   4.967  0.1669  0.2845  0.5013
  850THF    H1014047   1.531   0.638   4.933 -0.8194  0.6028  2.1275
  850THF    H1114048   1.664   0.535   5.001  0.1611 -1.4473  1.7839
  850THF    H1214049   1.463   0.416   5.071 -2.4987  1.5960 -0.3746
  850THF    H1314050   1.370   0.490   4.938 -2.4219 -1.9345  0.2494
  851THF     O114051   0.197   2.967   1.006  0.0453  0.7452  0.6475
  851THF     C214052   0.155   3.030   0.892  0.2597  0.0536 -0.0967
  851THF     C314053   0.333   2.946   0.985 -0.4563  0.2420  0.0081
  851THF     H414054   0.064   3.082   0.899  4.0029  0.2264 -0.0250
  851THF     H514055   0.151   2.967   0.804  1.5822  0.3156  1.1636
  851THF     H614056   0.374   2.909   1.074 -0.9232 -0.0928 -2.9654
  851THF     H714057   0.363   2.880   0.904  1.1271  0.0683 -0.3312
  851THF     C814058   0.375   3.088   0.962  0.0158  0.4740 -1.2825
  851THF     C914059   0.266   3.140   0.866  0.0666  0.4836  0.1120
  851THF    H1014060   0.476   3.083   0.920 -1.1987 -0.8506 -0.6291
  851THF    H1114061   0.368   3.146   1.057  2.0303  1.8112 -0.8176
  851THF    H1214062   0.229   3.240   0.886  0.0868 -0.9463 -1.8314
  851THF    H1314063   0.301   3.131   0.763  1.9531  0.3484 -2.9054
  852THF     O114064   3.583   0.392   1.561  0.7042  0.6452 -0.7163
  852THF     C214065   3.694   0.362   1.641 -0.2733  0.0346 -0.5197
  852THF     C314066   3.486   0.288   1.569  0.7432  0.0912  0.2917
  852THF     H414067   3.703   0.440   1.721  0.6857  1.8816 -0.5428
  852THF     H514068   3.781   0.370   1.580 -0.1698 -0.9973 -0.8868
  852THF     H614069   3.407   0.307   1.644  0.5544 -2.3897 -1.0329
  852THF     H714070   3.442   0.272   1.469  1.0476 -2.4793  1.9428
  852THF     C814071   3.573   0.164   1.610 -0.2115  0.1935  0.2036
  852THF     C914072   3.660   0.232   1.705  0.4537 -0.0572  0.8867
  852THF    H1014073   3.631   0.139   1.523 -1.1871  2.8081  1.6271
  852THF    H1114074   3.522   0.072   1.649 -0.6249 -1.0990  0.7536
  852THF    H1214075   3.611   0.242   1.801  1.3091 -0.3917 -1.7064
  852THF    H1314076   3.747   0.181   1.730  1.2786  4.9248 -0.2204
  853THF     O114077   2.583   0.999   1.385 -0.3059  0.6982  0.0278
  853THF     C214078   2.661   1.057   1.492  0.3394  0.4315  0.8541
  853THF     C314079   2.673   0.932   1.294  0.2766 -0.2235  0.0535
  853THF     H414080   2.689   0.971   1.551  0.4805  0.0858 -2.7599
  853THF     H514081   2.611   1.132   1.553  0.6998 -0.0701  0.0537
  853THF     H614082   2.682   0.827   1.329 -0.4111 -1.1427  1.3254
  853THF     H714083   2.647   0.920   1.187 -0.9407 -0.2776  0.5816
  853THF     C814084   2.812   0.997   1.310 -0.5966  0.3246  0.8009
  853THF     C914085   2.790   1.105   1.412  0.2122  0.1431  0.4799
  853THF    H1014086   2.840   1.042   1.212  0.1397 -1.3679 -0.2584
  853THF    H1114087   2.899   0.928   1.335  0.9312 -1.6738  0.0355
  853THF    H1214088   2.874   1.118   1.475 -1.4051  0.3436 -0.5266
  853THF    H1314089   2.768   1.206   1.362  0.0430 -1.2011 -1.9177
  854THF     O114090   1.578   2.566   4.676 -0.2601  0.5599  0.1291
  854THF     C214091   1.435   2.559   4.692 -0.0545  0.2496  0.1463
  854THF     C314092   1.600   2.706   4.647  0.3043 -0.0719  0.1836
  854THF     H414093   1.401   2.471   4.750 -0.7468 -0.5388 -2.9863
  854THF     H514094   1.390   2.541   4.597  1.4853  1.8204  0.6242
  854THF     H614095   1.695   2.746   4.630 -2.8255 -1.9545  2.5703
  854THF     H714096   1.552   2.724   4.552 -0.0531 -1.0567 -0.1865
  854THF     C814097   1.528   2.766   4.767  0.4719  0.8755  0.1150
  854THF     C914098   1.387   2.697   4.746 -0.0380  0.3202 -0.1106
  854THF    H1014099   1.521   2.875   4.779 -0.0901 -0.3535  0.6414
  854THF    H1114100   1.560   2.728   4.863  1.4387  0.3345 -3.0726
  854THF    H1214101   1.340   2.692   4.838 -1.3433 -0.3298 -0.2668
  854THF    H1314102   1.330   2.760   4.684  2.4250  0.6077 -0.2243
  855THF     O114103   3.174   2.339   0.317  0.7156  0.5102  0.2688
  855THF     C214104   3.051   2.287   0.267  0.9556  0.1969  0.5585
  855THF     C314105   3.278   2.237   0.326  0.0100  0.0178  0.1873
  855THF     H414106   3.035   2.329   0.169  0.4067 -1.4800 -0.5150
  855THF     H514107   2.972   2.299   0.329 -0.8347 -1.5637 -2.4180
  855THF     H614108   3.371   2.279   0.292 -0.4703  4.3082 -0.2106
  855THF     H714109   3.285   2.207   0.437  0.0890  1.4349  0.8552
  855THF     C814110   3.218   2.130   0.231  0.1130  0.2430 -0.0075
  855THF     C914111   3.070   2.142   0.247  0.3080  0.5581  0.2799
  855THF    H1014112   3.266   2.031   0.247  0.9471  1.9539  2.7070
  855THF    H1114113   3.251   2.147   0.125  0.4888  0.1914 -0.5076
  855THF    H1214114   3.002   2.098   0.177  1.1251  1.4645 -1.2070
  855THF    H1314115   3.037   2.087   0.334 -0.4884 -0.2358 -0.9078
  856THF     O114116   0.708   3.897   3.949  0.0937 -0.4361 -0.6286
  856THF     C214117   0.586   3.822   3.967  0.4009  0.0195  0.7042
  856THF     C314118   0.677   4.031   3.967 -0.1356 -0.3298  0.2885
  856THF     H414119   0.588   3.797   4.079  3.3796  0.2422  0.9651
  856THF     H514120   0.571   3.721   3.912 -0.9599  0.7042  1.5766
  856THF     H614121   0.666   4.054   4.082  1.2994 -1.9511 -0.6145
  856THF     H714122   0.758   4.088   3.929 -1.6790 -0.3036 -0.4580
  856THF     C814123   0.553   4.054   3.889  0.4597 -1.0535  0.2779
  856THF     C914124   0.479   3.923   3.921  0.0322 -0.4519 -0.5402
  856THF    H1014125   0.574   4.061   3.785  0.4994  1.9472 -1.3122
  856THF    H1114126   0.497   4.148   3.919 -2.6401 -1.0434  1.2364
  856THF    H1214127   0.402   3.931   3.996  1.9625  1.3524 -1.4624
  856THF    H1314128   0.427   3.894   3.829 -0.8389 -1.1556  2.6097
  857THF     O114129   0.507   0.580   4.933  0.5566  0.1323 -0.2033
  857THF     C214130   0.594   0.666   5.002  0.6282 -0.1125  0.0896
  857THF     C314131   0.430   0.517   5.037  1.0821 -0.2320 -0.7037
  857THF     H414132   0.542   0.756   5.039  0.0107  1.8005 -1.3618
  857THF     H514133   0.661   0.710   4.930 -1.8949  1.7849 -1.3524
  857THF     H614134   0.340   0.574   5.058 -0.7681 -0.5913  3.1670
  857THF     H714135   0.402   0.418   5.009 -1.2602 -2.2649  0.0794
  857THF     C814136   0.520   0.514   5.156  0.2759 -0.7711 -1.3053
  857THF     C914137   0.646   0.585   5.118 -1.0672  0.6124  0.1297
  857THF    H1014138   0.547   0.412   5.181 -0.4303  0.8342  1.8725
  857THF    H1114139   0.477   0.551   5.251 -0.2068  0.6321 -0.3295
  857THF    H1214140   0.681   0.642   5.197 -3.9645 -0.5828 -0.0897
  857THF    H1314141   0.713   0.505   5.087 -0.8360 -1.0181 -0.4540
  858THF     O114142   1.325   3.556   3.060 -0.1614  0.3865  0.3599
  858THF     C214143   1.254   3.594   2.941  0.0744 -0.2564  0.4940
  858THF     C314144   1.318   3.415   3.068 -0.0503 -0.1323 -0.0016
  858THF     H414145   1.314   3.601   2.846 -0.0951  1.9044  1.5873
  858THF     H514146   1.200   3.684   2.972 -1.2666  2.6917 -2.1369
  858THF     H614147   1.382   3.366   2.992 -2.2767  0.1022 -0.6103
  858THF     H714148   1.339   3.375   3.171 -0.7982 -0.7410  0.9020
  858THF     C814149   1.180   3.386   3.029  0.1598  0.1167  0.8995
  858THF     C914150   1.137   3.494   2.926  0.4712 -0.2508  0.0379
  858THF    H1014151   1.106   3.400   3.110  0.2542  1.2663  1.6151
  858THF    H1114152   1.176   3.284   2.989  0.2530 -0.4275 -0.4010
  858THF    H1214153   1.128   3.443   2.836  0.3108  0.3597  2.8657
  858THF    H1314154   1.041   3.534   2.953 -1.7499  1.4037  0.4662
  859THF     O114155   4.311   2.281   1.228  0.2540 -0.4503  0.0687
  859THF     C214156   4.412   2.179   1.258  0.6614 -0.7543  0.6658
  859THF     C314157   4.203   2.217   1.167  0.3030 -0.0831 -0.7944
  859THF     H414158   4.384   2.160   1.361  1.1210 -1.4008  0.1723
  859THF     H514159   4.509   2.214   1.249 -0.3477 -0.0727  0.8855
  859THF     H614160   4.145   2.173   1.246  2.3268  0.2697 -0.5304
  859THF     H714161   4.147   2.291   1.109 -0.8022  1.3215 -0.3338
  859THF     C814162   4.271   2.106   1.087  0.1602  0.2009 -0.4273
  859THF     C914163   4.381   2.055   1.177 -0.1484 -0.2112  1.1298
  859THF    H1014164   4.323   2.162   1.009  0.3493  0.3824 -0.3308
  859THF    H1114165   4.202   2.033   1.050 -0.6183 -0.5338  1.4265
  859THF    H1214166   4.341   1.973   1.237 -5.1525 -1.5112  2.9132
  859THF    H1314167   4.471   2.016   1.123 -1.2432 -0.1775 -2.2618
  860THF     O114168   0.207   2.420   3.401 -0.0167 -0.2709  0.3325
  860THF     C214169   0.293   2.492   3.485 -0.2298  0.4400 -0.3158
  860THF     C314170   0.228   2.283   3.432 -0.1671 -0.0856 -0.1552
  860THF     H414171   0.253   2.490   3.583 -1.2958  0.3837  0.2067
  860THF     H514172   0.304   2.596   3.460  1.4506  0.6996  3.2637
  860THF     H614173   0.173   2.256   3.520 -0.7652  0.2621 -1.9720
  860THF     H714174   0.190   2.218   3.353 -1.5399 -2.2443 -1.3716
  860THF     C814175   0.382   2.271   3.439  0.0733 -0.2870 -0.4093
  860THF     C914176   0.424   2.420   3.461  0.0872 -0.5636  0.9029
  860THF    H1014177   0.424   2.229   3.347 -1.5541  1.7192  2.5603
  860THF    H1114178   0.420   2.204   3.514  1.5832 -0.4711  0.6287
  860THF    H1214179   0.485   2.427   3.554  1.9525  0.0071 -0.0884
  860THF    H1314180   0.477   2.472   3.380  1.0195  2.1232 -0.5343
  861THF     O114181   0.348   1.360   4.218  0.4523 -0.1764 -0.0026
  861THF     C214182   0.335   1.380   4.365  0.2414 -0.1038 -0.4373
  861THF     C314183   0.241   1.270   4.184 -0.5168  0.4593 -0.3269
  861THF     H414184   0.275   1.469   4.384 -2.5319  0.3736  1.4261
  861THF     H514185   0.423   1.400   4.422  0.2946  2.1155 -1.0453
  861THF     H614186   0.167   1.331   4.122 -2.6958 -0.5334 -2.3376
  861THF     H714187   0.273   1.192   4.114 -0.5021  0.6117 -0.1497
  861THF     C814188   0.182   1.217   4.315  0.1408  0.0005  0.4347
  861THF     C914189   0.275   1.256   4.418 -0.4241 -0.5622 -0.0619
  861THF    H1014190   0.175   1.111   4.319  1.4945  0.0235  1.0792
  861THF    H1114191   0.093   1.274   4.345 -0.6487 -0.3300 -0.2619
  861THF    H1214192   0.238   1.267   4.521 -0.1332 -1.5089  2.9899
  861THF    H1314193   0.356   1.177   4.420  1.4266  1.7584  3.3822
  862THF     O114194   0.932   1.845   5.223  0.0635  0.2723  0.0921
  862THF     C214195   0.852   1.833   5.094 -0.0500 -0.4015  0.2353
  862THF     C314196   0.835   1.850   5.331  0.4093  0.1988 -0.0566
  862THF     H414197   0.881   1.751   5.033  0.5752  1.8998  0.4589
  862THF     H514198   0.874   1.915   5.027 -1.0408  0.3841  1.2113
  862THF     H614199   0.852   1.802   5.428  0.8059  0.1611 -0.2297
  862THF     H714200   0.817   1.954   5.350 -0.1258  1.6131 -0.1112
  862THF     C814201   0.720   1.784   5.277 -0.1071  0.6785 -0.5882
  862THF     C914202   0.707   1.846   5.139  0.8227  0.0335 -0.0187
  862THF    H1014203   0.630   1.798   5.327 -1.0523  1.5347 -0.1305
  862THF    H1114204   0.728   1.677   5.262 -0.0019 -1.4166  2.6092
  862THF    H1214205   0.635   1.793   5.072  0.1457  0.8806  0.9290
  862THF    H1314206   0.683   1.953   5.133 -1.1778  1.0847 -3.9583
  863THF     O114207   1.289   0.901   2.825 -0.1818  0.0324  0.1454
  863THF     C214208   1.331   1.019   2.763  0.2385 -0.6780 -0.7856
  863THF     C314209   1.156   0.925   2.876 -0.3974 -0.0127  0.3807
  863THF     H414210   1.420   1.010   2.704  0.1906 -3.3331  0.8629
  863THF     H514211   1.343   1.102   2.835  0.6747 -0.5548  0.2108
  863THF     H614212   1.098   0.840   2.898  2.0805  1.2965 -0.7419
  863THF     H714213   1.181   0.982   2.968 -0.6483 -0.6464  0.5120
  863THF     C814214   1.090   1.011   2.772  0.0907 -0.2088 -0.3624
  863THF     C914215   1.212   1.058   2.683 -0.0535 -0.7620  0.1602
  863THF    H1014216   1.037   1.093   2.822  2.1200 -0.7085  0.5122
  863THF    H1114217   1.027   0.948   2.715 -0.8344  0.6602  0.4962
  863THF    H1214218   1.219   1.005   2.587 -1.1122 -0.4738  2.1056
  863THF    H1314219   1.216   1.168   2.661 -0.5582 -0.1320 -1.4681
  864THF     O114220   1.667   3.710   1.975  0.3411 -0.3854  0.6976
  864THF     C214221   1.600   3.782   2.070 -0.6078 -0.3617  0.1890
  864THF     C314222   1.566   3.678   1.879 -0.0701 -0.7427  1.0430
  864THF     H414223   1.673   3.838   2.126 -0.1844 -1.0118  0.4816
  864THF     H514224   1.550   3.708   2.134  1.9256 -1.1823 -1.4830
  864THF     H614225   1.608   3.656   1.784  1.6292 -0.9344 -1.0904
  864THF     H714226   1.492   3.603   1.912 -0.2557 -0.2103  0.1379
  864THF     C814227   1.490   3.814   1.870  0.4957  0.0216  0.1285
  864THF     C914228   1.502   3.871   2.010 -0.2035 -0.5936  0.2449
  864THF    H1014229   1.389   3.791   1.835 -1.4552  0.6704  0.4695
  864THF    H1114230   1.551   3.868   1.801 -0.0481 -2.9365  2.1615
  864THF    H1214231   1.543   3.974   2.008 -1.1683  1.3055  0.6942
  864THF    H1314232   1.404   3.861   2.058  1.6901  1.0914 -0.7892
  865THF     O114233   3.341   4.665   1.357  0.7367  0.1074  0.3337
  865THF     C214234   3.217   4.685   1.421 -0.2186 -0.4503 -0.7288
  865THF     C314235   3.336   4.725   1.229  0.1105  0.1900  0.2500
  865THF     H414236   3.211   4.779   1.479 -1.3583 -2.0189  0.2082
  865THF     H514237   3.190   4.603   1.492 -2.9337  1.0886 -0.9387
  865THF     H614238   3.346   4.832   1.240  1.8258 -0.6441  0.0383
  865THF     H714239   3.421   4.685   1.164  0.5410 -0.7643 -0.2907
  865THF     C814240   3.193   4.688   1.181 -0.0408  0.3991  0.2961
  865THF     C914241   3.112   4.713   1.307  0.0709 -0.7387  0.4497
  865THF    H1014242   3.200   4.578   1.152  1.0994 -2.6754  2.0994
  865THF    H1114243   3.170   4.754   1.100  0.8587 -0.6947 -1.6381
  865THF    H1214244   3.071   4.822   1.313 -1.2950 -1.0091 -1.7245
  865THF    H1314245   3.028   4.642   1.301  1.4175 -1.9965 -0.8890
  866THF     O114246   4.159   5.224   5.066  0.3445 -0.1818 -0.4645
  866THF     C214247   4.064   5.285   4.988  0.0559  0.8863  0.3581
  866THF     C314248   4.131   5.242   5.202  0.0967 -0.4480 -0.7020
  866THF     H414249   3.995   5.210   4.945 -4.4978  1.5012 -0.1840
  866THF     H514250   4.122   5.339   4.917  0.6510  0.1681  3.4724
  866THF     H614251   4.056   5.174   5.220  1.0713 -0.5439 -3.2341
  866THF     H714252   4.209   5.224   5.275  0.9373  3.4784  0.5506
  866THF     C814253   4.079   5.391   5.201  0.8114 -0.1333 -0.3761
  866THF     C914254   3.995   5.383   5.080  0.0458  0.0382  0.5280
  866THF    H1014255   4.155   5.467   5.181 -1.6880 -2.1033  1.7535
  866THF    H1114256   4.032   5.427   5.295 -0.9578 -1.3584 -1.1014
  866THF    H1214257   3.898   5.337   5.109 -0.4590  1.8740  2.3263
  866THF    H1314258   3.988   5.487   5.036  0.5676  2.7566 -0.7556
  867THF     O114259   1.176   3.087   1.334  0.0991 -0.0954 -0.3486
  867THF     C214260   1.083   2.989   1.289 -0.2002  0.9376  0.0118
  867THF     C314261   1.295   3.023   1.355 -0.5464 -0.0636  0.8171
  867THF     H414262   1.109   2.968   1.181 -0.7797  0.3317 -3.1552
  867THF     H514263   0.984   3.035   1.304 -1.5449 -1.5162  0.0877
  867THF     H614264   1.349   3.037   1.268  0.3620 -0.4456  0.0046
  867THF     H714265   1.349   3.070   1.436 -0.9918  0.3145 -2.6014
  867THF     C814266   1.263   2.878   1.389 -0.5578  0.3834 -0.8186
  867THF     C914267   1.109   2.877   1.384  0.8434  0.5319 -0.5216
  867THF    H1014268   1.292   2.847   1.488 -0.0093 -2.1246  0.5655
  867THF    H1114269   1.299   2.799   1.322  0.8670 -0.1456 -0.1433
  867THF    H1214270   1.069   2.791   1.341  1.1279 -1.5820 -1.9323
  867THF    H1314271   1.066   2.896   1.480 -1.1378  0.8448 -2.0634
  868THF     O114272   4.801   3.038   5.410 -0.1010 -0.2492 -0.2920
  868THF     C214273   4.884   2.923   5.420  0.0245  0.0769 -0.0195
  868THF     C314274   4.780   3.070   5.277 -0.0182 -0.0930 -0.1229
  868THF     H414275   4.829   2.843   5.460  2.0427 -2.0979 -0.6454
  868THF     H514276   4.961   2.943   5.490  2.7771 -1.7904 -3.0952
  868THF     H614277   4.671   3.089   5.271 -1.3097  0.0029 -2.1108
  868THF     H714278   4.852   3.149   5.248 -3.2780 -0.9078  0.5046
  868THF     C814279   4.811   2.948   5.196 -0.0158  0.3767  0.0985
  868THF     C914280   4.930   2.890   5.278  0.3487  0.2744 -0.3626
  868THF    H1014281   4.839   2.977   5.098  0.5847 -1.0779  2.9641
  868THF    H1114282   4.732   2.871   5.186 -1.2343 -1.7321  0.0343
  868THF    H1214283   4.941   2.782   5.269  0.3309  1.5733  0.3610
  868THF    H1314284   5.026   2.926   5.242  2.4454 -0.2148  0.8827
  869THF     O114285   1.097   2.658   3.327 -0.1412 -0.4448 -0.0242
  869THF     C214286   0.955   2.671   3.339 -0.0201  0.5305  0.2251
  869THF     C314287   1.149   2.759   3.251 -0.5399  0.5421 -0.5563
  869THF     H414288   0.917   2.742   3.414 -1.4214 -2.1934 -1.3936
  869THF     H514289   0.915   2.573   3.366  0.8963  0.3566 -0.0400
  869THF     H614290   1.131   2.857   3.302  1.5123  1.7028  0.2149
  869THF     H714291   1.253   2.746   3.216 -0.0720 -1.7577  1.1068
  869THF     C814292   1.062   2.746   3.134  0.3878  0.1866 -0.2889
  869THF     C914293   0.923   2.702   3.195 -0.2903  0.1712  1.1744
  869THF    H1014294   1.090   2.658   3.077  0.6792 -1.8101 -1.3853
  869THF    H1114295   1.049   2.830   3.068 -2.7601 -1.5247  1.4828
  869THF    H1214296   0.851   2.790   3.184  0.6636  2.8295  1.3312
  869THF    H1314297   0.888   2.613   3.147  2.9318 -0.4205  0.5445
  870THF     O114298   3.500   4.985   0.844  0.3589  0.0010  0.0243
  870THF     C214299   3.434   4.897   0.923  0.3244 -0.2305  0.3168
  870THF     C314300   3.436   4.980   0.712 -1.0848 -0.9805 -0.1600
  870THF     H414301   3.343   4.942   0.953  0.6490  2.3573 -0.8917
  870THF     H514302   3.486   4.871   1.007 -1.0111  1.4799 -0.9538
  870THF     H614303   3.366   5.068   0.695 -0.5984 -0.2597  1.6163
  870THF     H714304   3.523   4.986   0.646 -0.1736 -0.1069  0.2489
  870THF     C814305   3.369   4.841   0.705  0.1035  0.2622 -0.8164
  870THF     C914306   3.400   4.776   0.832 -0.7649 -0.3245 -0.3745
  870THF    H1014307   3.409   4.779   0.625  2.1732 -0.3535  1.1333
  870THF    H1114308   3.255   4.848   0.710 -0.9095  0.4358  1.1748
  870THF    H1214309   3.323   4.711   0.874 -1.0148  1.2865 -2.0631
  870THF    H1314310   3.493   4.714   0.835  0.2165 -1.9878  0.6974
  871THF     O114311   5.238   0.407   4.106 -0.0274 -0.5317  0.4702
  871THF     C214312   5.270   0.270   4.120  0.3809 -0.0057  0.4222
  871THF     C314313   5.347   0.493   4.143  0.9750 -0.0298 -0.9472
  871THF     H414314   5.221   0.214   4.037 -0.0065 -1.7284 -1.0949
  871THF     H514315   5.221   0.232   4.215 -3.6488 -2.6913  0.6167
  871THF     H614316   5.335   0.595   4.098 -0.7260  0.1449 -1.5571
  871THF     H714317   5.334   0.507   4.248  0.9441  1.5008  0.9438
  871THF     C814318   5.460   0.408   4.097  0.0241 -0.5232  0.0970
  871THF     C914319   5.420   0.269   4.125 -0.4042  1.1025 -0.6589
  871THF    H1014320   5.553   0.445   4.144 -0.6002 -0.1142  0.5156
  871THF    H1114321   5.467   0.425   3.990  4.2416 -0.4323 -1.3269
  871THF    H1214322   5.469   0.193   4.064 -0.5227  0.4157  0.6207
  871THF    H1314323   5.454   0.234   4.223  1.1728  0.2959 -1.4476
  872THF     O114324   4.022   2.787   5.202  0.1952  0.6204 -0.2517
  872THF     C214325   4.095   2.769   5.083 -0.0619  0.5010  0.3773
  872THF     C314326   3.960   2.658   5.243 -0.3351 -0.4424 -0.3267
  872THF     H414327   4.199   2.787   5.098 -1.9844  1.1884 -0.7616
  872THF     H514328   4.072   2.846   5.003  2.0652  2.0442 -0.9715
  872THF     H614329   3.979   2.643   5.346  3.5936  1.6080  0.9865
  872THF     H714330   3.854   2.651   5.228 -0.5534 -1.8450  0.0868
  872THF     C814331   4.021   2.550   5.155  0.4967 -0.7026 -0.1981
  872THF     C914332   4.054   2.635   5.031  0.7107  0.1405 -0.4822
  872THF    H1014333   3.956   2.465   5.138 -2.4716 -3.6957  2.5910
  872THF    H1114334   4.114   2.517   5.202 -0.8319  1.7348  2.1302
  872THF    H1214335   4.129   2.588   4.969 -1.2753  0.0933  0.3876
  872THF    H1314336   3.959   2.659   4.969 -0.0188  1.5701 -1.6252
  873THF     O114337   4.476   0.694   3.592 -0.4992 -0.4267  0.2657
  873THF     C214338   4.436   0.583   3.665 -0.0386  0.7105  0.1389
  873THF     C314339   4.363   0.776   3.549  0.1261 -0.2372  0.6274
  873THF     H414340   4.445   0.597   3.770 -0.2023  0.1648 -2.2230
  873THF     H514341   4.502   0.497   3.653  1.6433 -2.3893  1.8138
  873THF     H614342   4.381   0.880   3.591  3.1355 -1.7204  0.5257
  873THF     H714343   4.353   0.787   3.443 -0.1543  2.5421 -0.9233
  873THF     C814344   4.240   0.716   3.616  0.2663 -0.4320 -0.0333
  873THF     C914345   4.281   0.572   3.635 -0.0138  0.0556  0.4122
  873THF    H1014346   4.155   0.727   3.552  3.7884  1.0272 -0.0996
  873THF    H1114347   4.216   0.770   3.713  0.0813 -0.7424  1.3786
  873THF    H1214348   4.223   0.526   3.712 -0.6117  0.3461 -1.3181
  873THF    H1314349   4.250   0.516   3.545  0.2742 -0.8297  1.6271
  874THF     O114350   1.134   3.456   0.652 -0.4207 -0.3813  0.1599
  874THF     C214351   1.228   3.356   0.619 -0.3213 -0.3260 -0.5951
  874THF     C314352   1.032   3.453   0.553 -0.2028 -0.4415 -0.0255
  874THF     H414353   1.300   3.335   0.699  1.3583 -0.8645  3.9100
  874THF     H514354   1.285   3.376   0.523  0.1312  0.9530 -0.1085
  874THF     H614355   0.942   3.500   0.589 -0.7566  0.4741 -1.4654
  874THF     H714356   1.057   3.524   0.465  0.7501 -1.0118  0.7140
  874THF     C814357   1.030   3.305   0.521  0.9072  0.5582 -0.4614
  874THF     C914358   1.134   3.238   0.602  0.7843 -0.6338  0.1519
  874THF    H1014359   1.041   3.285   0.418 -0.3151 -0.4645  2.8902
  874THF    H1114360   0.938   3.254   0.542  3.0534 -0.3819 -1.3512
  874THF    H1214361   1.098   3.220   0.696  2.2684 -1.1196 -1.9266
  874THF    H1314362   1.174   3.144   0.567  1.8243  1.1770 -0.4513
  875THF     O114363   0.429   3.257   3.913  0.7189  0.0959  0.0355
  875THF     C214364   0.342   3.274   4.017  0.2298  0.1883  0.5887
  875THF     C314365   0.353   3.249   3.791 -0.2228 -0.3599  1.0053
  875THF     H414366   0.330   3.376   4.038 -0.4432 -1.2683 -0.0652
  875THF     H514367   0.379   3.220   4.102 -0.7917  1.6249 -1.8152
  875THF     H614368   0.343   3.344   3.738  0.5759  1.3391  0.0660
  875THF     H714369   0.394   3.173   3.722 -2.3464  0.6230 -1.0769
  875THF     C814370   0.213   3.200   3.830  0.1256  0.2159  0.8655
  875THF     C914371   0.201   3.220   3.982  0.7595 -0.6064  0.3456
  875THF    H1014372   0.212   3.094   3.801 -1.2973 -1.4260  0.5742
  875THF    H1114373   0.133   3.237   3.777 -0.3445  0.7149 -4.3092
  875THF    H1214374   0.123   3.297   3.999  0.4378 -1.0924 -0.2528
  875THF    H1314375   0.169   3.131   4.025  0.1965 -1.5496  2.1068
  876THF     O114376   4.252   0.751   0.608 -0.2511 -0.3768 -0.1208
  876THF     C214377   4.386   0.780   0.582  0.3218  0.2691  0.2934
  876THF     C314378   4.182   0.797   0.497  0.3225 -0.2817 -0.6206
  876THF     H414379   4.432   0.695   0.525 -0.6499 -3.8137 -2.2526
  876THF     H514380   4.444   0.799   0.674 -0.1766 -0.2088 -0.3482
  876THF     H614381   4.183   0.746   0.400 -2.7280 -1.8385  0.2124
  876THF     H714382   4.077   0.821   0.529  1.8316  0.3263  1.7963
  876THF     C814383   4.251   0.935   0.478  0.0682 -0.0278  0.1358
  876THF     C914384   4.392   0.904   0.496 -0.0547 -0.4638  0.1221
  876THF    H1014385   4.221   1.004   0.546 -0.5137  0.3029 -0.8418
  876THF    H1114386   4.220   0.988   0.386 -0.5618 -1.8082  2.2224
  876THF    H1214387   4.453   0.901   0.403  0.2576  0.4911  2.2473
  876THF    H1314388   4.444   0.993   0.539  0.2590  1.1721 -2.9358
  877THF     O114389   2.849   0.120   0.617  0.5301  0.4590 -0.1286
  877THF     C214390   2.934   0.141   0.727 -0.2898  0.0811  0.1717
  877THF     C314391   2.917   0.115   0.493  0.4184 -0.6458  0.1156
  877THF     H414392   2.910   0.068   0.801  0.1664  0.7793  0.5317
  877THF     H514393   2.927   0.241   0.767  2.1871 -0.0546  0.8606
  877THF     H614394   2.909   0.011   0.456  2.0869  1.6789  1.2986
  877THF     H714395   2.871   0.189   0.422 -1.4343 -1.4144 -0.8099
  877THF     C814396   3.060   0.158   0.539  0.2982  0.0549  0.2891
  877THF     C914397   3.073   0.114   0.679 -0.3303 -0.2291  0.2959
  877THF    H1014398   3.078   0.266   0.534 -1.2755 -2.0266  1.2234
  877THF    H1114399   3.136   0.111   0.479 -0.4783  0.2099  1.4766
  877THF    H1214400   3.099   0.009   0.686 -0.6318 -1.2862  0.5194
  877THF    H1314401   3.154   0.163   0.734 -1.3434  0.8400  0.9631
  878THF     O114402   2.939   4.713   4.682  0.2266  0.2043  0.1714
  878THF     C214403   2.989   4.646   4.564  1.6109  0.5902 -0.3953
  878THF     C314404   2.877   4.616   4.769  0.4030 -0.4507 -0.0388
  878THF     H414405   3.089   4.680   4.541 -3.2420  1.7436 -2.7918
  878THF     H514406   2.920   4.664   4.487  1.7113 -2.2647  0.6198
  878THF     H614407   2.944   4.604   4.860  0.0887  2.8370 -0.6254
  878THF     H714408   2.780   4.656   4.804 -2.0113  2.8002 -1.2591
  878THF     C814409   2.861   4.483   4.687 -0.1068  0.3613  0.1235
  878THF     C914410   2.979   4.493   4.594  0.1943 -0.0412 -0.1166
  878THF    H1014411   2.769   4.484   4.632  2.5532  1.0840  3.0362
  878THF    H1114412   2.857   4.400   4.751 -0.6442 -0.0360  0.1994
  878THF    H1214413   3.059   4.465   4.655 -0.2024  2.8474 -0.5852
  878THF    H1314414   2.968   4.431   4.509 -1.0811  0.5613 -1.7701
  879THF     O114415   4.120   5.469   3.608 -0.2890  0.8198  0.8312
  879THF     C214416   4.134   5.326   3.583  0.0100  0.2237 -0.0872
  879THF     C314417   4.182   5.505   3.729 -0.4468 -0.3680 -0.1186
  879THF     H414418   4.121   5.299   3.479  0.4019  1.2475  1.5641
  879THF     H514419   4.056   5.270   3.640 -1.5554 -0.0608 -0.4506
  879THF     H614420   4.231   5.600   3.734  0.8958 -1.5396 -0.2396
  879THF     H714421   4.124   5.483   3.813  3.6856  2.9658 -0.6059
  879THF     C814422   4.297   5.399   3.740 -0.3189 -0.3097 -0.0064
  879THF     C914423   4.278   5.303   3.625 -0.5081  0.7594 -0.2323
  879THF    H1014424   4.294   5.344   3.840 -2.7037  1.8919  2.3438
  879THF    H1114425   4.393   5.449   3.733  1.3924  3.6441 -2.8215
  879THF    H1214426   4.349   5.326   3.543  2.3653  1.7393 -1.8386
  879THF    H1314427   4.295   5.192   3.642  0.8316 -1.2833 -1.8567
  880THF     O114428   4.898   1.459   5.053  0.3395 -0.2561 -0.7050
  880THF     C214429   4.963   1.582   5.033  0.0174 -0.4139 -0.5249
  880THF     C314430   4.832   1.425   4.938 -0.3764 -0.2122 -0.7870
  880THF     H414431   5.049   1.601   5.100  1.2145 -0.9628 -3.2503
  880THF     H514432   4.898   1.665   5.039 -0.7852  3.3636 -0.1151
  880THF     H614433   4.800   1.317   4.942 -1.9624 -0.4367  1.4667
  880THF     H714434   4.746   1.492   4.936 -0.3638 -0.7915 -0.6332
  880THF     C814435   4.916   1.470   4.818  0.2075 -0.1300 -0.0007
  880THF     C914436   5.004   1.581   4.881 -0.0790  0.1913 -0.3130
  880THF    H1014437   4.846   1.492   4.742 -2.3388 -0.9785  2.0134
  880THF    H1114438   4.963   1.376   4.784 -1.1995 -1.5607 -1.0008
  880THF    H1214439   5.111   1.559   4.868  1.5081 -0.1644  0.2683
  880THF    H1314440   4.997   1.670   4.822 -0.0321 -1.7310 -1.4964
  881THF     O114441   0.483   3.316   1.281 -0.1482 -0.0074 -0.3518
  881THF     C214442   0.369   3.310   1.366  0.0868  0.6855  0.0813
  881THF     C314443   0.469   3.421   1.188 -0.4295 -0.2685  0.1268
  881THF     H414444   0.389   3.388   1.441  0.5964 -2.3701  1.8208
  881THF     H514445   0.345   3.217   1.425  1.4733  1.7561 -0.6947
  881THF     H614446   0.527   3.501   1.221  0.7482 -1.2957 -1.2720
  881THF     H714447   0.507   3.390   1.092 -1.6216  2.2989 -0.6128
  881THF     C814448   0.316   3.443   1.176 -0.4486 -0.5878  0.1977
  881THF     C914449   0.252   3.348   1.279 -0.0869 -0.2327  0.0061
  881THF    H1014450   0.275   3.440   1.073 -0.6989  2.3893 -1.2335
  881THF    H1114451   0.291   3.547   1.205 -1.7538  0.5904 -2.1718
  881THF    H1214452   0.173   3.396   1.328 -1.2932  2.4859 -0.0029
  881THF    H1314453   0.200   3.258   1.238  0.9867  4.6121 -1.1196
  882THF     O114454   3.700   2.210   1.401  0.2233  0.0662  0.2500
  882THF     C214455   3.691   2.085   1.472  0.2196 -0.0447 -0.0058
  882THF     C314456   3.579   2.238   1.347 -0.0240  0.2422  1.0018
  882THF     H414457   3.777   2.094   1.549  3.2936  1.4330  0.0507
  882THF     H514458   3.721   2.005   1.401  2.6737 -0.3465 -2.4936
  882THF     H614459   3.562   2.345   1.340 -3.1635  0.2504 -1.1192
  882THF     H714460   3.573   2.185   1.245 -0.4733  1.9980 -0.2932
  882THF     C814461   3.478   2.184   1.441 -0.2689 -0.2150  0.7399
  882THF     C914462   3.552   2.076   1.525  0.1650 -0.1513 -1.0209
  882THF    H1014463   3.390   2.128   1.395 -1.6510  2.6728  0.2821
  882THF    H1114464   3.435   2.261   1.502 -0.0651 -1.1577 -1.9166
  882THF    H1214465   3.538   2.103   1.630  0.9212 -0.4224  1.0372
  882THF    H1314466   3.514   1.973   1.511 -1.7548 -1.1878  1.2249
  883THF     O114467   4.324   0.076   4.554  0.0425  0.4294  0.2960
  883THF     C214468   4.436   0.120   4.629 -0.5846  0.0252  0.0788
  883THF     C314469   4.251   0.189   4.514 -0.0818 -0.3344 -1.2667
  883THF     H414470   4.509   0.037   4.626 -0.5789 -0.5552 -1.0674
  883THF     H514471   4.408   0.152   4.734 -0.1692  0.4697  0.8353
  883THF     H614472   4.180   0.179   4.432 -2.2024 -1.2325 -0.4750
  883THF     H714473   4.196   0.224   4.605 -1.0860  1.0242 -0.0983
  883THF     C814474   4.365   0.288   4.475  0.1655 -0.6063  0.0118
  883THF     C914475   4.489   0.240   4.552  0.1723 -0.0925 -0.0361
  883THF    H1014476   4.336   0.390   4.514 -1.1604 -0.2983 -0.0774
  883THF    H1114477   4.387   0.288   4.364  0.7944 -0.5317 -2.5127
  883THF    H1214478   4.547   0.196   4.472 -1.9162  2.8032  4.3373
  883THF    H1314479   4.548   0.319   4.596 -1.0475 -1.2967 -2.5782
  884THF     O114480   0.157   4.382   2.775 -0.1619 -0.1431 -0.2764
  884THF     C214481   0.139   4.345   2.643  0.1967  0.5981  0.5962
  884THF     C314482   0.027   4.379   2.828  0.7064 -0.5825 -0.1427
  884THF     H414483   0.143   4.234   2.631  4.1651 -0.3634  0.2261
  884THF     H514484   0.222   4.387   2.596  0.8771 -1.3473  1.4046
  884THF     H614485   0.009   4.284   2.878  1.9336  1.0757 -3.3444
  884THF     H714486   0.022   4.448   2.910 -1.4146 -4.2379  1.1033
  884THF     C814487  -0.076   4.409   2.726 -0.0939  0.2438  0.2348
  884THF     C914488   0.002   4.396   2.597  0.5328  0.2121 -0.8387
  884THF    H1014489  -0.095   4.520   2.743 -1.5969 -0.9642 -0.0197
  884THF    H1114490  -0.179   4.365   2.719 -0.2879  0.2265 -0.4532
  884THF    H1214491  -0.038   4.337   2.519  0.8772 -0.6594  0.5082
  884THF    H1314492   0.010   4.498   2.554  0.3788  0.3048 -2.1173
  885THF     O114493   5.277   3.500   4.383 -0.5185  0.0634  0.3407
  885THF     C214494   5.213   3.490   4.251  0.9481  0.2486 -0.2995
  885THF     C314495   5.362   3.393   4.407 -0.0894  0.1120  0.1044
  885THF     H414496   5.215   3.589   4.201 -0.0078 -1.1663  0.6275
  885THF     H514497   5.106   3.455   4.253  0.5808  2.7527  0.5600
  885THF     H614498   5.424   3.413   4.494  0.3292  0.7849  0.9686
  885THF     H714499   5.302   3.297   4.413 -2.2151  0.4110  2.9637
  885THF     C814500   5.436   3.395   4.270  0.1710 -0.2180 -0.1050
  885THF     C914501   5.314   3.399   4.174 -0.3976  0.5324  0.3271
  885THF    H1014502   5.502   3.310   4.259 -0.9751 -0.7825  2.5743
  885THF    H1114503   5.500   3.491   4.253 -1.6601  1.5717  0.8095
  885THF    H1214504   5.346   3.445   4.082  2.1368 -1.5911  0.3200
  885THF    H1314505   5.285   3.301   4.145  2.4181 -1.7222 -1.0945
  886THF     O114506   3.083   0.924   1.707  0.0521  0.7377 -0.0821
  886THF     C214507   2.958   0.933   1.776  0.2439 -0.0609 -0.6830
  886THF     C314508   3.063   0.842   1.597  0.3831  0.2864 -0.3219
  886THF     H414509   2.880   0.983   1.716  1.6755 -1.5266 -1.3770
  886THF     H514510   2.972   0.986   1.869  0.6547  1.8166 -0.2503
  886THF     H614511   2.998   0.891   1.527 -1.9575 -1.5583  2.0553
  886THF     H714512   3.153   0.809   1.546  0.5786  1.3493  0.6745
  886THF     C814513   2.990   0.725   1.658 -0.4702 -0.0351 -0.4160
  886THF     C914514   2.943   0.783   1.790  0.2854  0.0694 -0.0541
  886THF    H1014515   3.058   0.641   1.663  0.8449 -1.2462  0.9918
  886THF    H1114516   2.903   0.693   1.605 -1.2714 -0.7281 -1.9181
  886THF    H1214517   2.836   0.753   1.807  1.6457 -1.7504  2.8129
  886THF    H1314518   2.995   0.746   1.878 -0.0383 -0.6258 -0.2274
  887THF     O114519   3.896   0.927   1.994  0.0215 -0.8185  0.4314
  887THF     C214520   3.784   0.855   1.932 -0.3272  0.0028  0.4096
  887THF     C314521   4.013   0.885   1.921  0.5951  0.1126  0.3010
  887THF     H414522   3.751   0.905   1.844 -0.8311  0.3127  1.2430
  887THF     H514523   3.695   0.846   1.996 -1.6139  1.0054 -1.1051
  887THF     H614524   4.037   0.932   1.825 -0.4988  0.3163 -0.7422
  887THF     H714525   4.102   0.899   1.986  2.6900  1.2529  0.2236
  887THF     C814526   3.997   0.737   1.906  0.9148 -0.2463  0.3185
  887THF     C914527   3.847   0.712   1.920 -0.4223 -0.4630 -0.4394
  887THF    H1014528   4.036   0.671   1.979  0.5548  0.5808 -4.5344
  887THF    H1114529   4.024   0.708   1.803  2.2149 -0.0092 -1.1336
  887THF    H1214530   3.821   0.675   1.821 -2.1473 -1.4949  2.4113
  887THF    H1314531   3.831   0.632   1.999  2.9675 -2.9321  0.1290
  888THF     O114532   1.011   2.991   1.993 -0.2281  0.5238 -0.4429
  888THF     C214533   0.964   3.048   1.878 -0.1181 -0.6353  0.4290
  888THF     C314534   1.081   2.874   1.955  0.0566  0.3586  0.7928
  888THF     H414535   0.931   3.152   1.891 -0.3276  1.3633  2.0066
  888THF     H514536   0.882   2.987   1.843  1.4061  0.5976  0.7296
  888THF     H614537   1.143   2.845   2.032 -0.9003 -3.5154  0.8943
  888THF     H714538   0.998   2.802   1.950 -1.1741 -1.2842  0.2040
  888THF     C814539   1.139   2.901   1.820 -0.4226 -0.2598  0.2104
  888THF     C914540   1.086   3.037   1.786 -0.0600 -0.0528 -0.6042
  888THF    H1014541   1.092   2.828   1.752 -0.9759 -3.6123  1.9890
  888THF    H1114542   1.250   2.886   1.829  2.9596 -0.5253  0.4649
  888THF    H1214543   1.159   3.110   1.827 -1.7306  1.0885  1.2265
  888THF    H1314544   1.087   3.068   1.681  1.6788  1.4423  3.6290
  889THF     O114545   1.482   0.549   0.999  0.0296  0.3276  0.5568
  889THF     C214546   1.457   0.569   1.140 -0.2260  0.5183 -0.0849
  889THF     C314547   1.370   0.508   0.927 -0.5841  0.0870 -0.6105
  889THF     H414548   1.512   0.658   1.173 -1.0336  0.7341  1.0159
  889THF     H514549   1.488   0.470   1.194  0.6375  1.6449  1.9271
  889THF     H614550   1.377   0.544   0.827 -0.3001 -1.9135 -0.2891
  889THF     H714551   1.369   0.402   0.920 -0.2098 -1.6037 -2.4399
  889THF     C814552   1.247   0.565   0.999  0.3513  0.1688 -0.6463
  889THF     C914553   1.304   0.605   1.135 -0.2579 -0.2503  0.0299
  889THF    H1014554   1.164   0.497   1.011  1.9734  1.1826  2.4559
  889THF    H1114555   1.206   0.654   0.950  0.4545 -2.3922  2.9718
  889THF    H1214556   1.302   0.704   1.123  1.6020 -1.4481 -1.7919
  889THF    H1314557   1.242   0.575   1.222  1.3200  1.5821  4.4012
  890THF     O114558   4.282   2.738   1.388 -0.4010  0.0554 -0.2240
  890THF     C214559   4.212   2.629   1.436  0.4662 -0.0656  0.2960
  890THF     C314560   4.194   2.822   1.319  0.1973 -0.0242  0.5516
  890THF     H414561   4.169   2.653   1.534 -0.9930 -0.8707  0.0442
  890THF     H514562   4.284   2.553   1.447 -1.6946  1.0891 -0.0233
  890THF     H614563   4.163   2.897   1.397  1.0464 -0.2518  2.7776
  890THF     H714564   4.238   2.871   1.235 -2.5669  0.3556  0.8665
  890THF     C814565   4.069   2.741   1.273  0.1947  0.3079  0.4459
  890THF     C914566   4.101   2.600   1.330  0.1944  0.2756  0.0845
  890THF    H1014567   4.059   2.727   1.169  0.2727 -0.6926 -2.4130
  890THF    H1114568   3.977   2.774   1.318  3.8272  1.1846  1.3216
  890THF    H1214569   4.021   2.543   1.372 -1.2372  4.1590  0.9174
  890THF    H1314570   4.138   2.523   1.254 -1.2182  0.2102  0.7199
  891THF     O114571   1.906   1.429   4.930  0.4039 -0.5898 -1.0169
  891THF     C214572   1.876   1.395   4.797  0.4315  0.0136  0.5704
  891THF     C314573   1.846   1.332   5.018 -0.1597  0.1549  0.4960
  891THF     H414574   1.955   1.406   4.726  2.6659 -0.1649 -0.6473
  891THF     H514575   1.797   1.462   4.771  2.5934  0.3716 -0.8728
  891THF     H614576   1.920   1.288   5.087  0.6352 -0.5128 -0.3054
  891THF     H714577   1.767   1.367   5.082 -0.6817  1.3936 -0.5624
  891THF     C814578   1.772   1.230   4.923 -0.1270  0.8889  0.5235
  891THF     C914579   1.844   1.246   4.797 -0.6514  0.0827 -0.1781
  891THF    H1014580   1.667   1.259   4.901 -1.3166 -1.7228  1.1577
  891THF    H1114581   1.778   1.128   4.969  0.8355  2.1477  0.4164
  891THF    H1214582   1.931   1.187   4.802 -2.9135 -0.2528 -0.4597
  891THF    H1314583   1.790   1.215   4.711  0.0076 -0.9702  0.0066
  892THF     O114584   0.751   2.554   1.951  0.1166 -0.7101 -0.3068
  892THF     C214585   0.750   2.661   2.052 -0.0312  0.0592 -0.0576
  892THF     C314586   0.640   2.466   1.973  0.7079  0.3919 -0.1331
  892THF     H414587   0.690   2.746   2.022 -3.1884 -4.1818  0.4653
  892THF     H514588   0.846   2.708   2.076 -0.9081  0.9643 -0.3549
  892THF     H614589   0.549   2.513   1.947  2.0749  0.4253 -1.0102
  892THF     H714590   0.655   2.369   1.924 -4.7230 -3.1728  0.3978
  892THF     C814591   0.641   2.449   2.127  0.2242  0.1575 -0.5615
  892THF     C914592   0.686   2.586   2.173  0.0168  0.6764 -0.0861
  892THF    H1014593   0.710   2.376   2.161 -0.1921  0.3811 -0.7966
  892THF    H1114594   0.544   2.420   2.176 -2.0558  0.4046  0.3911
  892THF    H1214595   0.595   2.630   2.198 -2.9932 -1.2367 -2.0238
  892THF    H1314596   0.742   2.589   2.270  1.3916  2.7594  3.3176
  893THF     O114597   1.887   4.273   2.285 -0.1599 -0.0499  0.0350
  893THF     C214598   1.751   4.230   2.305 -0.0626 -0.0917 -0.6746
  893THF     C314599   1.961   4.168   2.229 -0.3505  0.3747  0.1412
  893THF     H414600   1.678   4.310   2.306 -1.2946  2.6021  1.1932
  893THF     H514601   1.734   4.177   2.401  0.1652  0.4631  1.0063
  893THF     H614602   2.042   4.211   2.168 -0.7325 -0.2641 -2.8945
  893THF     H714603   2.007   4.106   2.308  0.5516  0.1679  1.6621
  893THF     C814604   1.857   4.089   2.139  0.4488  0.3273 -0.0001
  893THF     C914605   1.722   4.128   2.195  0.2452 -0.6901 -0.2957
  893THF    H1014606   1.867   3.978   2.127 -1.6721 -1.9565 -2.4325
  893THF    H1114607   1.863   4.122   2.036  1.2894 -2.9623  2.5767
  893THF    H1214608   1.658   4.179   2.127 -0.5326 -0.5231  0.8917
  893THF    H1314609   1.674   4.051   2.242  0.1921 -2.8385  0.5982
  894THF     O114610   4.556   3.916   4.962  0.3657 -0.2631  0.3102
  894THF     C214611   4.416   3.945   4.934 -0.0618 -1.0298  0.5943
  894THF     C314612   4.603   4.024   5.043 -0.1238 -0.0427 -1.0029
  894THF     H414613   4.376   3.852   4.902  1.6337 -0.8991  0.5536
  894THF     H514614   4.418   3.994   4.836  1.4352  0.2247 -0.3599
  894THF     H614615   4.688   3.985   5.101 -1.7451 -0.8943  1.5425
  894THF     H714616   4.627   4.107   4.983  1.1133  0.5452 -0.2036
  894THF     C814617   4.489   4.046   5.143  0.2230  0.3407 -0.2691
  894THF     C914618   4.361   4.014   5.063  0.3416 -0.5333 -0.9277
  894THF    H1014619   4.488   4.151   5.183  5.3249  1.5724 -2.4295
  894THF    H1114620   4.485   3.974   5.228 -1.7728  1.2917 -0.4278
  894THF    H1214621   4.286   3.961   5.124 -1.8286  2.4780 -1.7526
  894THF    H1314622   4.302   4.102   5.031  0.2808 -0.3540  1.0949
  895THF     O114623   1.510   1.303   0.891  0.1586  0.3977 -0.6828
  895THF     C214624   1.499   1.254   1.023  0.7343  0.1406  0.2336
  895THF     C314625   1.398   1.262   0.810 -0.5993 -0.1540 -0.5989
  895THF     H414626   1.470   1.340   1.079 -0.4914 -1.8054 -2.3236
  895THF     H514627   1.589   1.211   1.061 -1.5052 -0.5966  3.8578
  895THF     H614628   1.323   1.325   0.822  0.2214 -0.2597  1.7019
  895THF     H714629   1.433   1.258   0.708 -0.1714 -1.6244 -0.0500
  895THF     C814630   1.350   1.133   0.884 -0.7625  0.2300 -0.0444
  895THF     C914631   1.377   1.164   1.029  0.8708  0.0308  0.1936
  895THF    H1014632   1.417   1.047   0.859  0.4777 -2.9106  4.6157
  895THF    H1114633   1.246   1.111   0.862 -2.0942  3.2652 -0.2492
  895THF    H1214634   1.296   1.223   1.056  0.8134 -0.1623 -2.1331
  895THF    H1314635   1.382   1.072   1.084  0.6932 -1.3070 -0.3286
  896THF     O114636   3.092   0.161   5.402 -0.5119 -0.2639 -0.1552
  896THF     C214637   2.972   0.214   5.442 -0.2451 -0.0088  0.2349
  896THF     C314638   3.191   0.208   5.492 -1.2154 -0.3498 -0.1628
  896THF     H414639   2.884   0.170   5.398  1.6933 -0.9150 -0.7286
  896THF     H514640   2.969   0.318   5.407 -0.1555  1.7484 -1.0676
  896THF     H614641   3.282   0.140   5.520  1.0997 -0.7792 -1.6799
  896THF     H714642   3.230   0.303   5.452 -2.1371 -1.7813 -0.7894
  896THF     C814643   3.135   0.229   5.628 -0.3810 -0.1917  0.0672
  896THF     C914644   2.986   0.222   5.595  0.1566 -0.5508  0.1563
  896THF    H1014645   3.169   0.330   5.647  1.1313 -1.9491 -0.7681
  896THF    H1114646   3.164   0.167   5.715 -0.3646  1.7674  0.5645
  896THF    H1214647   2.947   0.136   5.646 -0.9667 -2.0586  0.1055
  896THF    H1314648   2.928   0.308   5.631 -2.5796  0.4180 -0.1040
  897THF     O114649   3.638   4.452   1.802  0.2858 -0.2554 -0.4036
  897THF     C214650   3.734   4.363   1.861 -0.5984 -0.3740 -0.1544
  897THF     C314651   3.643   4.579   1.865 -0.2048 -0.1483 -0.3881
  897THF     H414652   3.758   4.283   1.790  3.6655  1.0095 -3.0762
  897THF     H514653   3.711   4.309   1.951 -4.9226 -0.7899  0.6447
  897THF     H614654   3.586   4.660   1.816 -1.2209 -2.5916  0.0812
  897THF     H714655   3.604   4.555   1.961  1.7396 -1.8169  0.3641
  897THF     C814656   3.794   4.600   1.867  0.5730  0.1906  0.4794
  897THF     C914657   3.856   4.456   1.885  0.6026 -0.0100  0.1873
  897THF    H1014658   3.842   4.674   1.934  2.6564 -1.6386  0.0284
  897THF    H1114659   3.819   4.614   1.765 -2.3668 -1.8252 -0.5414
  897THF    H1214660   3.937   4.445   1.816  1.8101  1.0402 -0.1362
  897THF    H1314661   3.885   4.451   1.990 -0.1148 -0.2673  0.5211
  898THF     O114662   1.725   0.016   1.236  0.1559 -0.4079 -0.4187
  898THF     C214663   1.861   0.017   1.275 -0.0966  0.0952  0.0195
  898THF     C314664   1.706   0.115   1.137  0.1258  0.3106 -0.1144
  898THF     H414665   1.902  -0.073   1.236 -0.4148 -0.7376 -0.3138
  898THF     H514666   1.855   0.017   1.388 -0.0409 -1.7437  1.6678
  898THF     H614667   1.723   0.061   1.048  2.5202 -1.5800 -1.4108
  898THF     H714668   1.603   0.152   1.134 -1.8186 -0.3383 -0.0491
  898THF     C814669   1.811   0.218   1.170 -0.4733  0.4550  0.2284
  898THF     C914670   1.928   0.139   1.222 -0.0799 -0.3669 -0.2998
  898THF    H1014671   1.772   0.280   1.251  2.5495 -0.4093 -0.3952
  898THF    H1114672   1.827   0.275   1.090  0.7280 -0.6063  0.6842
  898THF    H1214673   1.995   0.116   1.136  0.7956  0.7774  0.1374
  898THF    H1314674   1.996   0.192   1.295  0.0634 -0.3222 -2.8226
  899THF     O114675   2.882   4.230   1.480  0.3565  0.0840  0.6912
  899THF     C214676   2.785   4.167   1.396 -0.5567 -0.2558 -0.4965
  899THF     C314677   2.900   4.364   1.432 -0.7451 -0.2250 -0.7713
  899THF     H414678   2.748   4.088   1.451  2.4262  2.2051 -1.0737
  899THF     H514679   2.836   4.142   1.305 -0.5866 -1.1707  1.3893
  899THF     H614680   2.936   4.426   1.515 -3.8457  1.7568  1.0155
  899THF     H714681   2.963   4.375   1.336 -2.1770  1.0399 -1.4439
  899THF     C814682   2.760   4.404   1.391  0.1750  0.1841 -0.4425
  899THF     C914683   2.675   4.277   1.380 -0.1394  0.9242  0.4347
  899THF    H1014684   2.756   4.462   1.301  0.9157  1.1290 -1.9757
  899THF    H1114685   2.717   4.467   1.471 -1.6894 -0.3322 -2.0898
  899THF    H1214686   2.619   4.280   1.470 -0.3573  0.9474 -2.2666
  899THF    H1314687   2.616   4.264   1.286  2.0389  0.3878 -0.3234
  900THF     O114688   3.234   3.151   2.952  0.5184  0.0588 -0.1025
  900THF     C214689   3.101   3.131   2.984  0.4744 -0.5227 -0.2931
  900THF     C314690   3.309   3.096   3.064  0.3273 -0.4668 -0.0786
  900THF     H414691   3.066   3.037   2.948  1.8459 -0.1230  1.5756
  900THF     H514692   3.031   3.208   2.939 -0.4693  1.5856  1.7673
  900THF     H614693   3.306   2.985   3.061 -0.4030  1.3432 -1.3134
  900THF     H714694   3.410   3.129   3.061  0.5722 -0.3505 -0.1175
  900THF     C814695   3.237   3.155   3.182 -0.2802 -0.0378  0.3050
  900THF     C914696   3.094   3.134   3.135 -0.3463 -0.7211 -0.0886
  900THF    H1014697   3.261   3.265   3.207 -1.1730 -0.7653  0.5582
  900THF    H1114698   3.272   3.104   3.267 -2.3543  2.3682  0.9894
  900THF    H1214699   3.058   3.042   3.176 -0.0556  2.8773  0.8445
  900THF    H1314700   3.026   3.209   3.173 -2.5063  1.0686 -0.6790
  901PF6-    P114701   4.482   2.778   4.820 -0.0540  0.0316 -0.6618
  901PF6-    F214702   4.432   2.726   4.677  0.2890 -0.0616 -0.2524
  901PF6-    F314703   4.530   2.838   4.955  0.1337  0.3291  0.2404
  901PF6-    F414704   4.378   2.686   4.900  0.8244  0.1631 -0.1712
  901PF6-    F514705   4.585   2.870   4.753 -0.7057  0.1690  0.1293
  901PF6-    F614706   4.377   2.893   4.808 -0.3806 -0.6131  0.0790
  901PF6-    F714707   4.596   2.659   4.827  0.0929 -0.0936 -0.7645
  902PF6-    P114708   1.419   1.030   4.687  0.3661  0.2119 -0.4841
  902PF6-    F214709   1.369   0.879   4.655  0.3136 -0.3605 -0.4156
  902PF6-    F314710   1.462   1.186   4.709 -0.0107  0.0257  0.0163
  902PF6-    F414711   1.551   0.978   4.759 -0.4698  0.1536  0.1226
  902PF6-    F514712   1.285   1.086   4.617  0.4409  0.0536  0.6095
  902PF6-    F614713   1.344   1.022   4.829  0.1871  0.1799 -0.0862
  902PF6-    F714714   1.492   1.026   4.550  0.5400 -0.8047  0.4776
  903PF6-    P114715   3.817   4.517   2.326  0.2320 -0.0010  0.0015
  903PF6-    F214716   3.722   4.604   2.227 -0.3921 -0.2187  0.7245
  903PF6-    F314717   3.906   4.437   2.426 -0.0392  0.4247  0.3569
  903PF6-    F414718   3.937   4.550   2.222  0.2683  0.3864  0.0894
  903PF6-    F514719   3.694   4.495   2.425  0.3035 -0.0791  0.0848
  903PF6-    F614720   3.775   4.380   2.250 -0.2246 -0.1709 -0.3190
  903PF6-    F714721   3.853   4.655   2.402 -0.2439 -0.2233 -0.0130
  904PF6-    P114722   3.044   3.279   1.658  0.3253  0.4426 -0.1058
  904PF6-    F214723   2.983   3.187   1.541  0.2082 -0.2176 -0.9717
  904PF6-    F314724   3.102   3.378   1.773 -0.2656 -0.4867  0.1653
  904PF6-    F414725   2.948   3.398   1.608  0.2820 -0.0223 -0.7521
  904PF6-    F514726   3.129   3.161   1.717 -0.2308  0.3041  0.1779
  904PF6-    F614727   3.162   3.323   1.563 -0.0314  0.1841  0.4402
  904PF6-    F714728   2.922   3.235   1.755  0.2109 -0.1280  0.5242
  905PF6-    P114729   0.895   4.674   0.310 -0.3111 -0.0437 -0.0100
  905PF6-    F214730   1.005   4.559   0.331 -0.4783  0.0477  0.0779
  905PF6-    F314731   0.789   4.798   0.294 -0.6504  0.6294  0.2347
  905PF6-    F414732   0.971   4.726   0.180  0.0916  0.1654  0.6893
  905PF6-    F514733   0.827   4.630   0.455  0.2480  0.8627  0.1052
  905PF6-    F614734   0.990   4.764   0.402 -0.1217  0.1491  0.0708
  905PF6-    F714735   0.796   4.575   0.229 -0.0329  0.3968 -0.1121
  906PF6-    P114736   5.481   2.521   4.634  0.1739 -0.3544 -0.1635
  906PF6-    F214737   5.593   2.619   4.608  0.1524 -0.0385 -0.6357
  906PF6-    F314738   5.360   2.415   4.666 -0.5128 -0.3657  0.0601
  906PF6-    F414739   5.388   2.642   4.697  0.2270  0.6293 -0.3755
  906PF6-    F514740   5.571   2.403   4.578 -0.1134  0.1193  0.1171
  906PF6-    F614741   5.539   2.500   4.779 -0.3009  0.0174 -0.1156
  906PF6-    F714742   5.421   2.547   4.488 -0.5730 -0.0088 -0.0703
  907PF6-    P114743   2.392   1.455   1.529  0.0622 -0.1004 -0.0125
  907PF6-    F214744   2.309   1.563   1.608  0.2344 -0.4781  0.5142
  907PF6-    F314745   2.473   1.336   1.455  0.0738  0.5054  0.0993
  907PF6-    F414746   2.262   1.360   1.522 -0.5349  0.2255  0.1094
  907PF6-    F514747   2.531   1.541   1.534 -0.1079 -0.3388 -0.0948
  907PF6-    F614748   2.430   1.393   1.674 -0.4944 -0.0276 -0.2254
  907PF6-    F714749   2.352   1.521   1.395 -0.1030 -0.2403 -0.3733
  908PF6-    P114750   0.050   1.475   1.999  0.1763  0.2018  0.0522
  908PF6-    F214751   0.098   1.599   2.083  0.4749 -0.0110 -0.2213
  908PF6-    F314752   0.006   1.348   1.912  0.2753 -0.1263 -0.3243
  908PF6-    F414753  -0.076   1.460   2.096 -0.3035 -0.2128 -0.1316
  908PF6-    F514754   0.181   1.472   1.906 -0.4927 -0.2535  0.1427
  908PF6-    F614755   0.129   1.376   2.096  0.4386 -0.0026 -0.0526
  908PF6-    F714756  -0.028   1.575   1.901 -0.0796 -0.1687 -0.3771
  909PF6-    P114757   3.997   0.538   4.367 -0.1234 -0.3618  0.0391
  909PF6-    F214758   4.058   0.670   4.430  0.1455  0.0215  0.0888
  909PF6-    F314759   3.936   0.409   4.299  0.0587  0.0643 -0.3687
  909PF6-    F414760   4.015   0.606   4.223  0.3488  0.5514  0.5173
  909PF6-    F514761   3.988   0.472   4.510  0.5923  0.1134 -0.0781
  909PF6-    F614762   3.844   0.587   4.377  0.3432  0.6511  0.6317
  909PF6-    F714763   4.142   0.469   4.355 -0.1017 -0.3981 -0.3036
  910PF6-    P114764   4.783   4.597   0.143 -0.0729 -0.6627 -0.1087
  910PF6-    F214765   4.893   4.597   0.031 -0.0941 -0.5529 -0.5941
  910PF6-    F314766   4.668   4.592   0.257  0.0117 -0.7744 -0.5107
  910PF6-    F414767   4.824   4.449   0.190 -0.4286 -0.7684 -0.2840
  910PF6-    F514768   4.735   4.747   0.099 -0.1444 -0.0716 -0.3007
  910PF6-    F614769   4.682   4.539   0.040  0.1931 -0.1326 -0.3852
  910PF6-    F714770   4.886   4.660   0.249  0.0279  0.1704 -0.4124
  911PF6-    P114771   4.432   3.749   1.687  0.0031  0.1952  0.0445
  911PF6-    F214772   4.522   3.724   1.814  0.0718 -0.2181 -0.3055
  911PF6-    F314773   4.345   3.785   1.557  0.0913  0.4301  0.0104
  911PF6-    F414774   4.561   3.809   1.614  0.3922  0.0200  0.1112
  911PF6-    F514775   4.300   3.687   1.754  0.1511  0.2965 -0.6222
  911PF6-    F614776   4.394   3.894   1.750 -0.0864 -0.7401  0.5871
  911PF6-    F714777   4.467   3.610   1.625  0.3362  0.2035  0.1841
  912PF6-    P114778   0.547   3.777   0.932 -0.2219 -0.2363  0.4943
  912PF6-    F214779   0.458   3.718   1.045 -0.2701 -0.1524  0.2217
  912PF6-    F314780   0.641   3.839   0.818  0.5821  0.3194 -0.1470
  912PF6-    F414781   0.475   3.685   0.824 -0.1843  0.0601  0.0180
  912PF6-    F514782   0.621   3.866   1.049 -0.6397 -0.2537  0.0135
  912PF6-    F614783   0.653   3.662   0.955 -0.0516  0.4951  0.9962
  912PF6-    F714784   0.441   3.888   0.910 -0.5828 -0.1995  0.0604
  913PF6-    P114785   1.285   3.700   2.467 -0.0988 -0.2353 -0.1180
  913PF6-    F214786   1.144   3.663   2.401  0.0586 -0.4778  0.4665
  913PF6-    F314787   1.426   3.742   2.532 -0.0734  0.3776 -0.0919
  913PF6-    F414788   1.201   3.799   2.568 -0.4122 -0.3942 -0.2021
  913PF6-    F514789   1.365   3.606   2.364  0.4789  0.1384 -0.0912
  913PF6-    F614790   1.304   3.824   2.370  0.2142  0.7772  0.5487
  913PF6-    F714791   1.268   3.583   2.575 -0.6492 -0.2113 -0.4684
  914PF6-    P114792   0.580   2.190   4.868 -0.4304  0.0614  0.4409
  914PF6-    F214793   0.576   2.201   5.027  0.4378  0.2865  0.1957
  914PF6-    F314794   0.582   2.184   4.708 -0.3592  0.0195  0.4182
  914PF6-    F414795   0.528   2.036   4.884 -0.0188 -0.2047  0.1878
  914PF6-    F514796   0.632   2.341   4.855 -0.0858 -0.0196  0.1213
  914PF6-    F614797   0.732   2.141   4.877 -0.2020  0.0385  0.3177
  914PF6-    F714798   0.428   2.236   4.857 -0.2996 -0.4632  0.1528
  915PF6-    P114799   2.556   2.307   3.334 -0.2680  0.0925  0.0272
  915PF6-    F214800   2.675   2.332   3.439 -0.3344  0.5331 -0.6819
  915PF6-    F314801   2.432   2.294   3.229 -0.0130 -0.0643  0.2715
  915PF6-    F414802   2.597   2.156   3.316 -0.0783 -0.0691 -0.1203
  915PF6-    F514803   2.514   2.461   3.354 -0.3809 -0.2060 -0.2017
  915PF6-    F614804   2.656   2.348   3.215 -0.0139  0.1301 -0.3571
  915PF6-    F714805   2.454   2.263   3.453  0.4235 -0.0159 -0.2438
  916PF6-    P114806   1.882   1.895   2.274 -0.1808  0.1667  0.5428
  916PF6-    F214807   1.874   1.735   2.300  0.5145 -0.2968 -0.5397
  916PF6-    F314808   1.890   2.054   2.249  0.5458 -0.4499  0.0664
  916PF6-    F414809   1.776   1.885   2.152 -0.0550  0.3359 -0.6879
  916PF6-    F514810   1.992   1.905   2.386  0.8459  0.4216  0.1665
  916PF6-    F614811   1.996   1.876   2.161 -0.6716  0.1839  0.6093
  916PF6-    F714812   1.763   1.913   2.380  0.3784  0.1595  0.1981
  917PF6-    P114813   0.650   4.026   3.378  0.1014  0.2360 -0.3134
  917PF6-    F214814   0.499   4.057   3.341  0.2778  0.5972  0.3136
  917PF6-    F314815   0.799   3.997   3.422  0.0905 -0.3431 -0.2652
  917PF6-    F414816   0.701   4.121   3.257 -0.6546  0.0232 -0.2773
  917PF6-    F514817   0.600   3.927   3.495 -0.4637 -0.1582 -0.2883
  917PF6-    F614818   0.650   3.898   3.276  0.0785 -0.7616 -0.2225
  917PF6-    F714819   0.651   4.152   3.475  0.0368  0.3656  0.2741
  918PF6-    P114820   0.388   2.743   3.833  0.0248  0.4864 -0.3342
  918PF6-    F214821   0.241   2.676   3.846  0.7880 -0.0516 -0.0824
  918PF6-    F314822   0.536   2.796   3.822 -0.1174  0.3561 -0.3281
  918PF6-    F414823   0.362   2.855   3.947  0.5005  0.0221  0.0573
  918PF6-    F514824   0.419   2.628   3.726  0.2411 -0.6077  0.3233
  918PF6-    F614825   0.334   2.842   3.716  0.1918 -0.1697  0.4448
  918PF6-    F714826   0.432   2.646   3.950 -0.3394 -0.5080  0.0912
  919PF6-    P114827   3.509   2.601   4.420  0.2010 -0.1035  0.3602
  919PF6-    F214828   3.498   2.755   4.470 -0.2054  0.4657  0.1117
  919PF6-    F314829   3.520   2.449   4.363 -0.2987 -0.0354  0.4840
  919PF6-    F414830   3.629   2.565   4.519  0.2519 -0.2530 -0.2349
  919PF6-    F514831   3.392   2.631   4.319  0.9145  0.4450 -0.5934
  919PF6-    F614832   3.613   2.646   4.310 -0.2786  0.6712 -0.4666
  919PF6-    F714833   3.404   2.545   4.532 -0.3532 -0.5378  0.0251
  920PF6-    P114834   0.062   2.259   1.442 -0.4331  0.4411  0.3020
  920PF6-    F214835   0.014   2.150   1.330  0.1569  0.3225  0.3122
  920PF6-    F314836   0.109   2.367   1.550  0.1080  0.0879 -0.8197
  920PF6-    F414837   0.150   2.139   1.507 -0.0327 -0.5281 -0.2288
  920PF6-    F514838  -0.030   2.370   1.375 -0.2731 -0.5295  0.1204
  920PF6-    F614839  -0.062   2.210   1.535  0.1529 -0.3308  0.3224
  920PF6-    F714840   0.189   2.305   1.348 -0.1587 -0.1979  0.3738
  921PF6-    P114841   2.251   3.559   2.510  0.1008 -0.1530  0.1648
  921PF6-    F214842   2.326   3.467   2.395 -0.0871 -0.2099  0.3396
  921PF6-    F314843   2.173   3.649   2.617  0.4078  0.2403 -0.1398
  921PF6-    F414844   2.114   3.483   2.476  0.3975 -0.2495 -0.3258
  921PF6-    F514845   2.382   3.641   2.545  0.1104 -0.2862 -0.4070
  921PF6-    F614846   2.217   3.670   2.399 -0.2910 -0.0211 -0.4025
  921PF6-    F714847   2.281   3.445   2.623  0.7670  0.4644 -0.3586
  922PF6-    P114848   2.634   1.931   4.279  0.0146 -0.1924 -0.2910
  922PF6-    F214849   2.604   2.083   4.326  0.1302 -0.6124  0.2691
  922PF6-    F314850   2.658   1.780   4.235 -0.1884  0.1344  0.1337
  922PF6-    F414851   2.475   1.914   4.249  0.3967  0.2910  0.2098
  922PF6-    F514852   2.790   1.958   4.307  0.4302 -0.2662 -0.1089
  922PF6-    F614853   2.619   1.885   4.431  0.0248  0.0019 -0.3717
  922PF6-    F714854   2.648   1.973   4.127 -0.1525  0.0204  0.0778
  923PF6-    P114855   3.808   2.397   3.235  0.5858  0.2577 -0.0298
  923PF6-    F214856   3.867   2.280   3.144  0.2551  0.3631  0.5380
  923PF6-    F314857   3.750   2.520   3.327 -0.2377  0.2192  0.4580
  923PF6-    F414858   3.662   2.342   3.206 -0.0299 -1.3743 -0.0588
  923PF6-    F514859   3.956   2.447   3.261 -0.4761 -0.0917 -0.0885
  923PF6-    F614860   3.791   2.494   3.109 -1.0617 -0.5387  0.0233
  923PF6-    F714861   3.822   2.294   3.358  0.2923 -0.2439 -0.0634
  924PF6-    P114862   1.757   0.097   3.722 -0.2470  0.1156  0.2477
  924PF6-    F214863   1.714  -0.057   3.746  0.0562 -0.4251 -0.0618
  924PF6-    F314864   1.804   0.248   3.688  0.2463 -0.6471  0.1461
  924PF6-    F414865   1.723   0.078   3.565 -0.2368 -0.1870  0.0784
  924PF6-    F514866   1.793   0.120   3.876 -0.2400  0.5481  0.1782
  924PF6-    F614867   1.908   0.047   3.700 -0.0875  0.2601  0.2666
  924PF6-    F714868   1.603   0.140   3.741  0.2360  0.3370  0.0789
  925PF6-    P114869   3.980   2.158   5.336 -0.0675 -0.3220 -0.2586
  925PF6-    F214870   4.044   2.228   5.206  0.2099  0.2621  0.2016
  925PF6-    F314871   3.916   2.091   5.468  0.2950 -0.1918  0.1826
  925PF6-    F414872   3.833   2.163   5.278 -0.3486 -0.0964 -0.3003
  925PF6-    F514873   4.131   2.144   5.403  0.4486 -0.2858  0.3350
  925PF6-    F614874   3.961   2.304   5.403 -0.4406  0.0929  0.4896
  925PF6-    F714875   4.000   2.013   5.266 -0.0580 -0.3776  0.3381
  926PF6-    P114876   2.496   4.721   2.100  0.2483  0.0646 -0.5891
  926PF6-    F214877   2.573   4.584   2.070 -0.2917 -0.4998  0.3622
  926PF6-    F314878   2.425   4.863   2.130  0.3719 -0.6590 -0.1117
  926PF6-    F414879   2.598   4.758   2.218  0.1939 -0.4308  0.6309
  926PF6-    F514880   2.387   4.685   1.981 -0.5974 -0.2871 -0.3098
  926PF6-    F614881   2.409   4.642   2.207 -0.1793 -0.1199  0.0946
  926PF6-    F714882   2.587   4.801   1.989  0.4670 -0.2621  0.3019
  927PF6-    P114883   2.138   1.861   0.642  0.1996  0.4762 -0.4083
  927PF6-    F214884   2.204   1.958   0.534 -0.1914  0.1837  0.0879
  927PF6-    F314885   2.070   1.751   0.742  0.2736 -0.1969  0.1624
  927PF6-    F414886   2.245   1.752   0.606  0.1961  0.1086  0.2999
  927PF6-    F514887   2.029   1.972   0.673  0.3154  0.0451  0.5754
  927PF6-    F614888   2.047   1.803   0.526 -0.0388  0.2175  0.3794
  927PF6-    F714889   2.243   1.913   0.759  0.3388 -0.1295  0.4278
  928PF6-    P114890   4.648   4.438   1.066 -0.2635  0.2312  0.2410
  928PF6-    F214891   4.523   4.445   0.961  0.0070  0.2704 -0.4551
  928PF6-    F314892   4.768   4.426   1.175 -0.1219  0.0941  0.3289
  928PF6-    F414893   4.545   4.402   1.179  0.6273 -0.0406 -0.3300
  928PF6-    F514894   4.754   4.470   0.954  0.2051 -0.0289 -0.0995
  928PF6-    F614895   4.638   4.596   1.101  0.6443  0.4002  0.2231
  928PF6-    F714896   4.669   4.280   1.036  0.1580 -0.1543  0.3730
  929PF6-    P114897   0.454   1.450   0.955 -0.2162  0.5101 -1.1067
  929PF6-    F214898   0.517   1.315   1.010  0.0791  0.6449 -0.1170
  929PF6-    F314899   0.400   1.584   0.903  0.2856 -0.2097 -0.4568
  929PF6-    F414900   0.334   1.366   0.877  0.4465  0.4272  0.0733
  929PF6-    F514901   0.566   1.530   1.039  0.0127 -0.0706 -0.0335
  929PF6-    F614902   0.543   1.444   0.825  0.4890  0.7794  0.2480
  929PF6-    F714903   0.360   1.467   1.085 -0.4635 -0.5482 -0.0271
  930PF6-    P114904   2.989   0.504   3.863 -0.8158 -0.5269 -0.2580
  930PF6-    F214905   3.037   0.486   4.012 -0.4319  0.5948 -0.1391
  930PF6-    F314906   2.939   0.522   3.713 -0.0508  0.7832  0.2411
  930PF6-    F414907   3.034   0.658   3.868 -0.3089 -0.0989 -0.1614
  930PF6-    F514908   2.944   0.353   3.860 -0.3760  0.0993  0.4898
  930PF6-    F614909   2.848   0.554   3.918 -0.2445 -0.3090  0.2786
  930PF6-    F714910   3.133   0.459   3.810 -0.9978 -0.4386  0.3138
  931PF6-    P114911   1.165   1.720   1.718 -0.5444  0.1684  0.1180
  931PF6-    F214912   1.019   1.656   1.694  0.0384  0.1838  0.1808
  931PF6-    F314913   1.314   1.787   1.733  0.2128 -0.1485  0.3783
  931PF6-    F414914   1.165   1.683   1.878  0.3020 -0.1008  0.6375
  931PF6-    F514915   1.164   1.756   1.567 -0.1562 -0.1933 -0.0545
  931PF6-    F614916   1.095   1.861   1.742 -0.3270 -0.2372  0.5243
  931PF6-    F714917   1.237   1.578   1.686  0.6036  0.1387  0.2848
  932PF6-    P114918   5.185   5.012   3.804  0.0582  0.1133  0.2163
  932PF6-    F214919   5.317   5.060   3.875  0.4620 -0.3297 -0.1971
  932PF6-    F314920   5.052   4.957   3.735  0.0165 -0.1949 -0.3381
  932PF6-    F414921   5.117   4.991   3.949  0.6141  0.1098  0.2441
  932PF6-    F514922   5.254   5.024   3.659  0.1284  0.2568 -0.1610
  932PF6-    F614923   5.233   4.861   3.815 -0.0311 -0.5397 -0.5413
  932PF6-    F714924   5.136   5.162   3.800 -0.1740 -0.6790  0.1107
  933PF6-    P114925   3.421   5.171   2.572  0.4650  0.2540 -0.6165
  933PF6-    F214926   3.461   5.085   2.440  0.2698  0.2726  0.7759
  933PF6-    F314927   3.383   5.252   2.699 -1.0826 -0.1697  0.1587
  933PF6-    F414928   3.326   5.056   2.623  0.0150 -0.2235  0.1160
  933PF6-    F514929   3.512   5.293   2.525 -0.8763  0.1832  0.1656
  933PF6-    F614930   3.297   5.232   2.489 -0.1903  0.0265 -0.2715
  933PF6-    F714931   3.543   5.102   2.649  0.1154 -0.0848 -0.0372
  934PF6-    P114932   0.563   1.120   3.363  0.4195 -0.1281 -0.3595
  934PF6-    F214933   0.513   1.233   3.264 -0.9883  0.2407  0.1008
  934PF6-    F314934   0.608   1.004   3.469  0.4326  0.4526 -0.0983
  934PF6-    F414935   0.675   1.224   3.428 -0.3186  0.6283  0.0222
  934PF6-    F514936   0.458   1.024   3.300 -0.1820 -0.2516 -0.0306
  934PF6-    F614937   0.678   1.067   3.260 -0.4692 -0.4865  0.4446
  934PF6-    F714938   0.452   1.172   3.469 -0.3287 -0.5298  0.3134
  935PF6-    P114939   0.613   0.286   3.687 -0.1440 -0.1081  0.3016
  935PF6-    F214940   0.652   0.429   3.752  0.8714 -0.5330  0.5682
  935PF6-    F314941   0.579   0.140   3.630  0.4158  0.6041 -0.2747
  935PF6-    F414942   0.738   0.299   3.585 -0.0877  0.3859 -0.3525
  935PF6-    F514943   0.489   0.270   3.788  0.0827  0.8247 -0.1374
  935PF6-    F614944   0.520   0.354   3.578  0.1671  0.0371  0.0337
  935PF6-    F714945   0.714   0.215   3.794 -0.3311  0.1344  0.6281
  936PF6-    P114946   2.371   1.102   3.339  0.1297  0.2745  0.1250
  936PF6-    F214947   2.489   1.201   3.298  0.6745 -0.0715  0.0387
  936PF6-    F314948   2.258   0.993   3.382  0.2106 -0.3071 -0.0803
  936PF6-    F414949   2.280   1.176   3.225 -0.3356  0.0907  0.3456
  936PF6-    F514950   2.467   1.036   3.455 -0.9110 -0.0457 -0.4331
  936PF6-    F614951   2.306   1.207   3.441 -0.1252  0.0150  0.0755
  936PF6-    F714952   2.427   0.994   3.232 -0.0418  0.4420 -0.1087
  937PF6-    P114953   4.979   3.810   0.674  0.5447  0.0349  0.1776
  937PF6-    F214954   4.955   3.866   0.524 -0.1715 -0.1935  0.0014
  937PF6-    F314955   4.999   3.758   0.821 -0.0558 -0.2560 -0.3109
  937PF6-    F414956   4.853   3.713   0.665 -0.0370  0.3360 -0.3499
  937PF6-    F514957   5.107   3.897   0.690  0.1269  0.0164  0.1831
  937PF6-    F614958   4.899   3.934   0.731 -0.3937 -0.4179 -0.2398
  937PF6-    F714959   5.069   3.685   0.607  0.0300  0.1084 -0.0624
  938PF6-    P114960   5.077   1.297   3.038 -0.1796  0.2522  0.1662
  938PF6-    F214961   5.228   1.279   3.088 -0.2343 -0.2758  0.2861
  938PF6-    F314962   4.926   1.325   2.990 -0.7796  0.5110  0.2919
  938PF6-    F414963   5.019   1.281   3.185 -0.4245 -0.0540 -0.2569
  938PF6-    F514964   5.123   1.307   2.881 -0.0442 -0.4590 -0.0634
  938PF6-    F614965   5.062   1.141   3.025  0.0617  0.1784 -0.5386
  938PF6-    F714966   5.100   1.453   3.063 -0.1217 -0.1319  0.0891
  939PF6-    P114967   5.242   1.440   4.335  0.1687  0.2534 -0.2130
  939PF6-    F214968   5.159   1.431   4.199 -0.6912  0.3602  0.0096
  939PF6-    F314969   5.326   1.445   4.473  0.2121 -0.2021  0.3867
  939PF6-    F414970   5.106   1.456   4.416 -0.3411 -0.0668  0.4516
  939PF6-    F514971   5.375   1.417   4.256  0.0176 -0.6510 -0.0030
  939PF6-    F614972   5.250   1.600   4.313  0.0781  0.0302  0.1406
  939PF6-    F714973   5.222   1.280   4.348 -0.0352  0.5146  0.3015
  940PF6-    P114974   1.696   5.380   2.668  0.1156 -0.3570  0.0833
  940PF6-    F214975   1.688   5.293   2.799  0.5700  0.1828 -0.2696
  940PF6-    F314976   1.710   5.480   2.536  0.2830 -0.0027  0.0474
  940PF6-    F414977   1.543   5.430   2.683  0.1173  0.1658  0.5359
  940PF6-    F514978   1.844   5.344   2.646  0.2860 -0.0563  0.5522
  940PF6-    F614979   1.650   5.253   2.577 -0.2879  0.3799 -0.6799
  940PF6-    F714980   1.748   5.499   2.757 -0.0098 -0.0366  0.0134
  941PF6-    P114981   3.843   3.466   0.809 -0.3142  0.1853 -0.1148
  941PF6-    F214982   3.780   3.339   0.741  0.2353  0.0424  0.6025
  941PF6-    F314983   3.914   3.599   0.873  0.0147  0.0448  0.0094
  941PF6-    F414984   3.732   3.553   0.733  0.2756  0.6607  0.0984
  941PF6-    F514985   3.953   3.376   0.876 -0.1159 -0.5242 -0.2606
  941PF6-    F614986   3.937   3.482   0.680  0.4349  0.2792 -0.0264
  941PF6-    F714987   3.752   3.450   0.936 -0.1031  0.3214  0.1614
  942PF6-    P114988   4.516   5.115   2.678 -0.1486  0.1489  0.3611
  942PF6-    F214989   4.421   5.117   2.813  0.0457  0.2798  0.4804
  942PF6-    F314990   4.611   5.112   2.551 -0.1607 -0.9499 -0.3139
  942PF6-    F414991   4.457   5.258   2.629 -0.2030 -0.3198  0.2627
  942PF6-    F514992   4.572   4.968   2.723  0.4032  0.5066  0.2792
  942PF6-    F614993   4.398   5.047   2.598 -0.0964 -0.5194  0.3879
  942PF6-    F714994   4.629   5.192   2.760 -0.4513 -0.2899 -1.0701
  943PF6-    P114995   1.842   3.941   5.360 -0.3582 -0.2396 -0.2129
  943PF6-    F214996   1.877   3.854   5.497  0.4800  0.6079  0.1523
  943PF6-    F314997   1.813   4.032   5.231 -0.1994 -0.4192 -0.1884
  943PF6-    F414998   1.703   3.858   5.332 -0.8604  0.0651  0.2290
  943PF6-    F514999   1.981   4.022   5.377  0.1417 -0.1588 -0.2421
  943PF6-    F615000   1.922   3.844   5.262 -0.3602 -0.9448  0.1616
  943PF6-    F715001   1.768   4.044   5.457 -0.4417 -0.2617  0.2030
  944PF6-    P115002   4.939   2.370   3.925  0.0971 -0.0755 -0.4893
  944PF6-    F215003   5.059   2.427   4.016 -0.1423 -0.2459  0.2504
  944PF6-    F315004   4.822   2.306   3.842  0.0032 -0.1642 -0.3808
  944PF6-    F415005   4.943   2.228   4.010 -0.0428 -0.0482  0.1174
  944PF6-    F515006   4.932   2.511   3.847 -0.4451  0.4313  0.3492
  944PF6-    F615007   5.044   2.314   3.822 -0.5694  0.3340 -0.6833
  944PF6-    F715008   4.830   2.422   4.034  0.4564 -0.3450  0.1024
  945PF6-    P115009   0.523   0.291   2.758 -0.7409 -0.2851 -0.3450
  945PF6-    F215010   0.476   0.306   2.607  0.2186  0.2079 -0.0627
  945PF6-    F315011   0.572   0.274   2.913  0.3851 -0.3751  0.2348
  945PF6-    F415012   0.463   0.143   2.765 -0.0605  0.3002 -0.2169
  945PF6-    F515013   0.583   0.433   2.759 -0.1939 -0.1229 -0.3275
  945PF6-    F615014   0.380   0.351   2.818  0.1231 -0.4360  0.6010
  945PF6-    F715015   0.669   0.232   2.704 -0.4717 -0.3484 -0.5322
  946PF6-    P115016   4.076   1.048   5.294  0.4861 -0.0920 -0.1063
  946PF6-    F215017   3.952   1.019   5.391 -0.1903  0.0510 -0.2934
  946PF6-    F315018   4.206   1.076   5.212 -0.0354 -0.1951  0.0849
  946PF6-    F415019   4.046   0.923   5.195  0.1237 -0.5220 -0.8392
  946PF6-    F515020   4.109   1.178   5.386 -0.0481  0.2737  0.4424
  946PF6-    F615021   4.169   0.950   5.389  0.4274  0.0187  0.3279
  946PF6-    F715022   3.990   1.141   5.204  0.1369 -0.1603  0.0911
  947PF6-    P115023   1.736   3.087   0.779  0.0609  0.0606  0.2419
  947PF6-    F215024   1.856   3.114   0.877  0.2277 -0.0644  0.1733
  947PF6-    F315025   1.615   3.061   0.680  0.1500  0.1610  0.4682
  947PF6-    F415026   1.810   2.955   0.735  0.1682 -0.1800  0.5963
  947PF6-    F515027   1.666   3.227   0.826 -0.3767  0.5079 -0.1749
  947PF6-    F615028   1.817   3.166   0.664 -0.3024  0.0059 -0.3093
  947PF6-    F715029   1.658   3.017   0.901 -0.6692 -0.3231  0.1407
  948PF6-    P115030   1.686   0.936   1.329  0.0925  0.2411  0.0187
  948PF6-    F215031   1.685   0.800   1.414  0.0959 -0.6566 -0.0324
  948PF6-    F315032   1.685   1.069   1.238  0.5237  0.2589  0.2852
  948PF6-    F415033   1.766   0.858   1.213  0.4391  0.4403 -0.5000
  948PF6-    F515034   1.614   1.004   1.447 -0.8558 -0.0724 -0.1142
  948PF6-    F615035   1.831   0.974   1.386 -0.1168 -0.2507 -0.2250
  948PF6-    F715036   1.545   0.896   1.266  0.2478 -0.5621 -0.0560
  949PF6-    P115037   1.617   2.230   5.428  0.5307 -0.2412 -0.0753
  949PF6-    F215038   1.494   2.128   5.395  0.1369  0.0472  0.3124
  949PF6-    F315039   1.740   2.330   5.468 -0.0460 -0.0836 -0.1704
  949PF6-    F415040   1.700   2.113   5.509  0.0974  0.2241  0.3227
  949PF6-    F515041   1.536   2.351   5.350  0.2124  0.2435 -0.5004
  949PF6-    F615042   1.543   2.268   5.563 -0.4940  0.4004  0.0267
  949PF6-    F715043   1.690   2.194   5.295 -0.6731 -0.2886 -0.2696
  950PF6-    P115044   4.727   0.459   2.157  0.1171 -0.5332 -0.4053
  950PF6-    F215045   4.884   0.496   2.171  0.2376  0.0188 -0.3160
  950PF6-    F315046   4.572   0.419   2.153 -0.2971 -0.2989  0.2213
  950PF6-    F415047   4.695   0.590   2.242 -0.0851 -0.3416  0.4778
  950PF6-    F515048   4.764   0.324   2.074 -0.0432 -0.0931 -0.2025
  950PF6-    F615049   4.732   0.379   2.296 -0.3546 -0.0301  0.1365
  950PF6-    F715050   4.707   0.542   2.026  0.4732  0.2729 -0.2877
  951PF6-    P115051   0.932   3.508   0.102 -0.0308  0.1410  0.2698
  951PF6-    F215052   0.947   3.593  -0.029  0.4845 -0.3411  0.1484
  951PF6-    F315053   0.906   3.424   0.232  0.2700  0.0428 -0.2697
  951PF6-    F415054   0.806   3.601   0.138 -0.3617  0.3876 -0.1864
  951PF6-    F515055   1.061   3.424   0.064 -0.0661 -0.5603  0.1543
  951PF6-    F615056   1.022   3.606   0.187  0.0342  0.1483 -0.1783
  951PF6-    F715057   0.836   3.401   0.022  0.6886 -0.0658 -0.3279
  952PF6-    P115058   0.469   2.477   2.557  0.2773 -0.2643  0.3720
  952PF6-    F215059   0.560   2.413   2.436  0.2790 -0.3046 -0.2244
  952PF6-    F315060   0.389   2.535   2.681  0.0034  0.5109 -0.3824
  952PF6-    F415061   0.327   2.429   2.487  0.1491 -0.2243  0.4229
  952PF6-    F515062   0.607   2.518   2.627  0.0043  1.0574 -0.3448
  952PF6-    F615063   0.468   2.616   2.479 -0.0141 -0.0256  0.1378
  952PF6-    F715064   0.469   2.332   2.630  0.3078  0.1651 -0.4051
  953PF6-    P115065   3.143   2.398   1.277  0.1368 -0.4450 -0.1529
  953PF6-    F215066   3.103   2.246   1.235  0.1913  0.3694  0.3600
  953PF6-    F315067   3.187   2.547   1.320 -0.4436  0.6132 -0.2693
  953PF6-    F415068   3.197   2.343   1.413  0.4001  0.3415 -0.1077
  953PF6-    F515069   3.084   2.453   1.142  0.0654  0.3987 -0.4935
  953PF6-    F615070   3.005   2.424   1.347  0.3917 -0.3823 -0.4630
  953PF6-    F715071   3.285   2.377   1.214  0.1187  0.3711 -0.0289
  954PF6-    P115072   2.857   2.410   5.299  0.3465  0.2059  0.5052
  954PF6-    F215073   3.000   2.382   5.363 -0.3922 -0.1902  0.3099
  954PF6-    F315074   2.712   2.441   5.231 -0.0380  0.5176 -0.1535
  954PF6-    F415075   2.895   2.562   5.255 -0.3888 -0.3828  0.0999
  954PF6-    F515076   2.813   2.261   5.349  0.2324  0.3192  0.1484
  954PF6-    F615077   2.810   2.469   5.442 -0.6613 -0.6068  0.2791
  954PF6-    F715078   2.905   2.350   5.155 -0.1140 -0.3458  0.2474
  955PF6-    P115079   4.752   5.242   1.207  0.1992  0.0079  0.0283
  955PF6-    F215080   4.878   5.244   1.306 -0.3662 -0.2015 -0.0210
  955PF6-    F315081   4.623   5.242   1.106 -0.0031  0.0960  0.1092
  955PF6-    F415082   4.659   5.283   1.326 -0.0303 -0.7070 -0.2306
  955PF6-    F515083   4.853   5.205   1.089 -0.0760  0.5663  0.3078
  955PF6-    F615084   4.724   5.084   1.236  0.2727  0.3497 -0.1142
  955PF6-    F715085   4.778   5.399   1.184 -0.0072 -0.2558 -0.4216
  956PF6-    P115086   1.552   0.998   0.262  0.1708 -0.0061  0.6929
  956PF6-    F215087   1.628   1.143   0.248 -0.0619 -0.0403 -0.0204
  956PF6-    F315088   1.482   0.859   0.276 -0.3190  0.2932 -0.2388
  956PF6-    F415089   1.405   1.063   0.247 -0.6341 -0.0226  0.9598
  956PF6-    F515090   1.696   0.930   0.289  0.0508 -0.0028 -0.7121
  956PF6-    F615091   1.539   1.020   0.416  0.3439 -0.1108 -0.2379
  956PF6-    F715092   1.577   0.976   0.102 -0.3213 -0.5397 -0.0786
  957PF6-    P115093   3.834   1.373   0.729  0.5069 -0.3221  0.1291
  957PF6-    F215094   3.781   1.412   0.584 -0.0471 -0.6292  0.2326
  957PF6-    F315095   3.891   1.328   0.873  0.1789  0.2994  0.2646
  957PF6-    F415096   3.730   1.259   0.745  0.0226  0.0054 -0.4880
  957PF6-    F515097   3.943   1.485   0.719  0.3236 -0.0819 -0.5214
  957PF6-    F615098   3.730   1.480   0.802 -0.1168  0.1415  0.3602
  957PF6-    F715099   3.934   1.272   0.658 -0.2408  0.1169  0.1795
  958PF6-    P115100   4.022   1.664   2.510  0.1830 -0.2645  0.0686
  958PF6-    F215101   4.025   1.696   2.355  0.0011 -0.0409 -0.1857
  958PF6-    F315102   4.022   1.631   2.666 -0.2803  0.4732 -0.0484
  958PF6-    F415103   3.861   1.684   2.513  0.4963  0.1982  0.2537
  958PF6-    F515104   4.183   1.645   2.508 -0.0133 -0.2712  0.5431
  958PF6-    F615105   4.041   1.818   2.546  0.3559 -0.4097 -0.1597
  958PF6-    F715106   4.006   1.507   2.477  0.3795 -0.1193  0.0365
  959PF6-    P115107   5.076   4.402   2.494 -0.1938  0.3353  0.0490
  959PF6-    F215108   5.055   4.380   2.655 -0.6598 -0.0090  0.1333
  959PF6-    F315109   5.098   4.413   2.333  0.1418 -0.7394 -0.0182
  959PF6-    F415110   4.980   4.534   2.500 -0.3481  0.1088 -0.2567
  959PF6-    F515111   5.173   4.272   2.488 -0.7728  0.0532 -0.2700
  959PF6-    F615112   4.946   4.309   2.469 -0.2372  0.4790  0.2015
  959PF6-    F715113   5.205   4.498   2.517 -0.2066 -0.6145 -0.2962
  960PF6-    P115114   2.722   4.728   4.162  0.3050 -0.3439  0.1636
  960PF6-    F215115   2.747   4.883   4.179 -0.0239  0.4358  0.3806
  960PF6-    F315116   2.696   4.565   4.143 -0.5472 -0.1818 -0.0424
  960PF6-    F415117   2.575   4.756   4.108 -0.1015  0.4193 -0.1098
  960PF6-    F515118   2.864   4.699   4.217  0.1712  0.3179 -0.0207
  960PF6-    F615119   2.663   4.718   4.321 -0.6375  0.7452 -0.1751
  960PF6-    F715120   2.772   4.742   4.015  0.0729  0.5519 -0.3536
  961PF6-    P115121   3.320   2.015   2.094  0.6465  0.0834 -0.2179
  961PF6-    F215122   3.445   1.913   2.090  0.2448 -0.7262 -0.0315
  961PF6-    F315123   3.201   2.120   2.112 -0.0318 -0.6162  0.5396
  961PF6-    F415124   3.222   1.909   2.040  0.1013  0.0435 -0.2718
  961PF6-    F515125   3.419   2.121   2.151 -0.0669 -0.2060  0.0539
  961PF6-    F615126   3.343   2.067   1.946  0.5050  0.3062  0.0818
  961PF6-    F715127   3.286   1.968   2.240 -0.7855 -0.6932 -0.5035
  962PF6-    P115128   2.302   0.346   1.199  0.0153 -0.0897 -0.2593
  962PF6-    F215129   2.250   0.257   1.325  0.5404 -0.3475  0.1566
  962PF6-    F315130   2.350   0.435   1.075 -0.2281 -0.4854  0.2574
  962PF6-    F415131   2.163   0.420   1.201  0.7028 -0.6903 -0.1427
  962PF6-    F515132   2.443   0.269   1.207  0.1570 -0.2312  0.0555
  962PF6-    F615133   2.247   0.237   1.094  0.1197  0.6540 -0.0312
  962PF6-    F715134   2.357   0.456   1.300 -0.4896 -0.4929  0.3455
  963PF6-    P115135   4.019   4.053   5.402 -0.0696  0.2954  0.1647
  963PF6-    F215136   3.864   4.041   5.436  0.8582 -0.0393  0.1269
  963PF6-    F315137   4.169   4.074   5.369  0.3667 -0.3476 -0.3889
  963PF6-    F415138   4.066   4.059   5.556 -0.1513 -0.3226 -0.8440
  963PF6-    F515139   3.987   4.043   5.243  0.2186  0.0754  0.5402
  963PF6-    F615140   4.000   4.211   5.397 -0.0465 -0.7830 -0.0875
  963PF6-    F715141   4.033   3.897   5.404 -0.3106 -0.3476  0.3259
  964PF6-    P115142   3.883   4.264   4.429  0.2760 -0.5952 -0.0380
  964PF6-    F215143   3.736   4.234   4.491 -0.6105 -0.5367  0.2792
  964PF6-    F315144   4.026   4.299   4.373  0.5506  0.2005 -0.0893
  964PF6-    F415145   3.887   4.401   4.520  0.1839  0.0336  0.1614
  964PF6-    F515146   3.870   4.137   4.341  0.2432  0.4062  0.1234
  964PF6-    F615147   3.817   4.351   4.308 -0.0709 -0.3764 -0.5801
  964PF6-    F715148   3.948   4.180   4.550 -0.1001 -0.0560  0.1218
  965PF6-    P115149   0.294   0.027   4.955  0.1769  0.0437  0.4102
  965PF6-    F215150   0.324  -0.094   5.056  0.4862  0.1760  0.2514
  965PF6-    F315151   0.269   0.141   4.844  0.4104  0.1626 -0.0084
  965PF6-    F415152   0.161   0.077   5.038 -0.4801 -0.4259 -0.3416
  965PF6-    F515153   0.426  -0.014   4.886 -0.2117  0.0738 -0.1829
  965PF6-    F615154   0.211  -0.073   4.862 -0.6380  0.1754 -0.5561
  965PF6-    F715155   0.377   0.130   5.053  0.4490 -0.3482  0.7226
  966PF6-    P115156   2.689   3.448   0.710 -0.7196  0.1499  0.1147
  966PF6-    F215157   2.744   3.465   0.561  0.2727  0.2014 -0.1437
  966PF6-    F315158   2.630   3.431   0.857  0.0877 -0.1750 -0.2211
  966PF6-    F415159   2.559   3.375   0.652 -0.3620  0.3906 -0.3369
  966PF6-    F515160   2.818   3.518   0.769  0.1197 -0.0582 -0.0544
  966PF6-    F615161   2.613   3.589   0.695 -0.2014 -0.2007 -0.2405
  966PF6-    F715162   2.761   3.311   0.723  0.1397 -0.0655  0.1312
  967PF6-    P115163   4.737   2.691   2.213  0.0280 -0.2714 -0.0506
  967PF6-    F215164   4.879   2.732   2.264  0.0721 -0.3071  0.2661
  967PF6-    F315165   4.588   2.644   2.174  0.5643  0.6496  0.2405
  967PF6-    F415166   4.681   2.702   2.363  0.0768 -0.2387 -0.4571
  967PF6-    F515167   4.784   2.679   2.058 -0.5450 -0.1326 -0.5144
  967PF6-    F615168   4.772   2.544   2.239  0.1830  0.5026 -0.0006
  967PF6-    F715169   4.696   2.844   2.187 -0.0728  0.1135  0.2204
  968PF6-    P115170   0.901   2.232   0.594 -0.0281 -0.3250 -0.0599
  968PF6-    F215171   0.920   2.329   0.469  0.1992 -0.2847 -0.4562
  968PF6-    F315172   0.888   2.136   0.720 -0.5785  0.1106 -0.5578
  968PF6-    F415173   0.942   2.352   0.692 -0.5975 -0.1878  0.4791
  968PF6-    F515174   0.858   2.112   0.488  0.1905 -0.0367 -0.1075
  968PF6-    F615175   1.053   2.182   0.584 -0.0209  0.1693 -0.1213
  968PF6-    F715176   0.751   2.284   0.606  0.4021  0.1477  0.2168
  969PF6-    P115177   3.549   4.747   5.121 -0.0208  0.4754 -0.0156
  969PF6-    F215178   3.474   4.853   5.029 -0.3621  0.0089  0.3602
  969PF6-    F315179   3.625   4.630   5.196  0.0091 -0.1208 -0.2749
  969PF6-    F415180   3.435   4.636   5.098  0.3619 -0.0104  0.1979
  969PF6-    F515181   3.665   4.853   5.151 -0.4941 -0.2702 -0.0884
  969PF6-    F615182   3.467   4.795   5.248 -0.0153  0.0388 -0.2228
  969PF6-    F715183   3.628   4.699   4.989  0.7846  0.3913 -0.4743
  970PF6-    P115184   0.818   3.562   4.558  0.2050 -0.0791 -0.2699
  970PF6-    F215185   0.894   3.483   4.439  0.3735  0.1831 -0.1426
  970PF6-    F315186   0.737   3.648   4.673 -0.1277 -0.0323 -0.4944
  970PF6-    F415187   0.905   3.692   4.533 -0.0789  0.4825  0.1147
  970PF6-    F515188   0.734   3.431   4.585  0.2461  0.3746 -0.3043
  970PF6-    F615189   0.928   3.521   4.670 -0.4713 -0.6428 -1.1284
  970PF6-    F715190   0.712   3.610   4.454 -0.0794  0.1793 -0.2213
  971PF6-    P115191   4.566   3.118   3.414 -0.1740  0.3778 -0.1270
  971PF6-    F215192   4.693   3.176   3.506 -0.0782  0.3807 -0.2015
  971PF6-    F315193   4.440   3.063   3.328 -0.2991 -0.0996 -0.2899
  971PF6-    F415194   4.664   3.005   3.355 -0.1926 -0.2502 -0.2208
  971PF6-    F515195   4.474   3.233   3.477 -0.5346  0.2348  0.0586
  971PF6-    F615196   4.593   3.218   3.301  0.3152  0.2110  0.2119
  971PF6-    F715197   4.525   3.025   3.537  0.4264 -0.0855 -0.0381
  972PF6-    P115198   0.799   4.871   4.081 -0.0994  0.0546 -0.0677
  972PF6-    F215199   0.735   4.938   4.215  0.2829  0.3725  0.1429
  972PF6-    F315200   0.853   4.794   3.952  0.3584  0.3045 -0.2051
  972PF6-    F415201   0.940   4.873   4.142  0.1963  0.4153  0.3425
  972PF6-    F515202   0.655   4.866   4.016 -0.5025 -0.4594 -0.5013
  972PF6-    F615203   0.816   5.010   4.017  0.0538  0.2010 -0.5108
  972PF6-    F715204   0.786   4.729   4.139  0.1150  0.1754  0.1401
  973PF6-    P115205   3.024   1.267   3.672  0.1556 -0.1302  0.0190
  973PF6-    F215206   3.153   1.244   3.579  0.0147 -0.3422  0.6382
  973PF6-    F315207   2.892   1.291   3.766  0.4228  0.0698  0.3143
  973PF6-    F415208   3.013   1.107   3.698  0.4174  0.1440  0.0513
  973PF6-    F515209   3.033   1.421   3.654  0.1216  0.6818  0.3985
  973PF6-    F615210   2.934   1.254   3.543  0.4822  0.1492  0.1935
  973PF6-    F715211   3.127   1.277   3.803 -0.0824  0.0742 -0.4622
  974PF6-    P115212   5.479   4.797   2.997 -0.4337  0.1440  0.3979
  974PF6-    F215213   5.567   4.661   3.017 -0.3868  0.1946  0.6318
  974PF6-    F315214   5.392   4.932   2.983 -0.2892  0.5655 -0.2657
  974PF6-    F415215   5.503   4.790   2.833 -0.0109 -0.2198  0.0225
  974PF6-    F515216   5.453   4.800   3.154 -0.6432 -0.0794  0.3690
  974PF6-    F615217   5.606   4.893   3.018  0.2227  0.2340  0.3757
  974PF6-    F715218   5.342   4.710   2.984  0.2108 -0.0357 -0.5871
  975PF6-    P115219   5.112   1.138   0.210  0.1309 -0.2968  0.1795
  975PF6-    F215220   5.065   1.207   0.074 -0.8816 -0.3218  0.1388
  975PF6-    F315221   5.152   1.061   0.346 -0.0342  0.3458  0.0577
  975PF6-    F415222   5.050   1.269   0.287 -0.4952  0.3426 -0.1042
  975PF6-    F515223   5.168   1.020   0.119 -0.1233  0.7030 -0.1350
  975PF6-    F615224   5.255   1.213   0.206 -0.1973  0.5905  0.0424
  975PF6-    F715225   4.969   1.064   0.210 -0.5499  0.4140  0.3002
  976PF6-    P115226   3.993   3.121   2.077 -0.2484  0.1870 -0.4313
  976PF6-    F215227   4.115   3.060   2.163  0.0520  0.2202 -0.4157
  976PF6-    F315228   3.866   3.176   1.988  0.1926  0.1538 -0.3182
  976PF6-    F415229   3.944   2.971   2.033 -0.5587 -0.0952  0.1271
  976PF6-    F515230   4.031   3.269   2.123 -0.4747 -0.2485 -0.3211
  976PF6-    F615231   4.090   3.129   1.948 -0.0888  0.5835 -0.2717
  976PF6-    F715232   3.898   3.102   2.209  0.7166 -0.0655  0.1105
  977PF6-    P115233   1.510   3.203   4.147  0.5032  0.0022  0.0525
  977PF6-    F215234   1.600   3.154   4.030 -0.1347 -0.6868  0.1439
  977PF6-    F315235   1.418   3.256   4.266  0.0488 -0.0454 -0.2106
  977PF6-    F415236   1.642   3.247   4.230 -0.0315 -0.1313  0.0825
  977PF6-    F515237   1.377   3.158   4.064  0.3060 -0.3586  0.0004
  977PF6-    F615238   1.517   3.060   4.219 -0.1324 -0.0391 -0.2888
  977PF6-    F715239   1.503   3.343   4.069 -0.0642  0.4105  0.2606
  978PF6-    P115240   0.123   0.232   1.706  0.1673  0.2633  0.0754
  978PF6-    F215241   0.038   0.221   1.568  0.4180  0.1109  0.2607
  978PF6-    F315242   0.202   0.239   1.844 -0.2603 -0.0481  0.2873
  978PF6-    F415243  -0.019   0.231   1.786  0.1337  0.1826  0.2658
  978PF6-    F515244   0.261   0.231   1.625  0.4803  0.3084  0.0842
  978PF6-    F615245   0.124   0.394   1.689  0.3845  0.3521  0.8357
  978PF6-    F715246   0.128   0.074   1.713 -0.2125  0.1093  0.4407
  979PF6-    P115247   2.169   4.161   1.315 -0.0589  0.0325  0.0794
  979PF6-    F215248   2.271   4.275   1.271  0.1350 -0.2172 -0.1775
  979PF6-    F315249   2.067   4.047   1.366  0.3545 -0.4804 -0.2450
  979PF6-    F415250   2.231   4.167   1.472  0.6654 -0.1629  0.2068
  979PF6-    F515251   2.103   4.162   1.173 -0.3780 -0.5172  0.2166
  979PF6-    F615252   2.271   4.048   1.274 -0.1499  0.2839 -0.6090
  979PF6-    F715253   2.062   4.279   1.354  0.0939  0.8114 -0.1600
  980PF6-    P115254   4.139   0.426   1.467  0.1039  0.0018 -0.2457
  980PF6-    F215255   4.009   0.526   1.446  0.1725  0.1842 -0.2052
  980PF6-    F315256   4.266   0.326   1.481 -0.1995  0.1405 -0.0992
  980PF6-    F415257   4.049   0.305   1.424 -0.0685  0.2491 -0.1633
  980PF6-    F515258   4.228   0.549   1.505  0.3366 -0.8324 -0.3180
  980PF6-    F615259   4.093   0.400   1.622 -0.4294 -0.1875 -0.1310
  980PF6-    F715260   4.180   0.449   1.314  0.1171  0.1185 -0.3927
  981PF6-    P115261   4.344   0.558   2.934 -0.1317  0.1886  0.2079
  981PF6-    F215262   4.294   0.638   3.058  0.0898 -0.2897  0.1710
  981PF6-    F315263   4.405   0.480   2.805  0.3106 -0.3988  0.1706
  981PF6-    F415264   4.207   0.587   2.856  0.0805 -0.4192 -0.8367
  981PF6-    F515265   4.483   0.523   3.014 -0.3272 -0.5303  0.3233
  981PF6-    F615266   4.278   0.416   2.982 -0.1472  0.0017 -0.2057
  981PF6-    F715267   4.409   0.693   2.878  0.5251 -0.3234  0.2866
  982PF6-    P115268   3.247   5.324   1.520  0.0866 -0.7588 -0.1495
  982PF6-    F215269   3.335   5.342   1.389  0.1736  0.1614  0.7140
  982PF6-    F315270   3.153   5.315   1.646 -0.0346 -0.1047  0.0154
  982PF6-    F415271   3.312   5.458   1.580  0.2331  0.0250  0.2427
  982PF6-    F515272   3.181   5.195   1.460 -0.0586 -0.0814  0.0199
  982PF6-    F615273   3.360   5.242   1.592  0.2337  0.2742 -0.3354
  982PF6-    F715274   3.135   5.407   1.447  0.2961  0.0469  0.1165
  983PF6-    P115275   3.257   3.431   0.075 -0.0023  0.0064 -0.3206
  983PF6-    F215276   3.321   3.284   0.097  0.3668 -0.2901 -0.4611
  983PF6-    F315277   3.193   3.572   0.053  0.0202  0.0594  0.6456
  983PF6-    F415278   3.397   3.498   0.057  0.3823 -0.8878 -0.2251
  983PF6-    F515279   3.112   3.362   0.096  0.2194  0.0343 -0.4658
  983PF6-    F615280   3.262   3.456   0.233 -0.2877 -0.6276 -0.1679
  983PF6-    F715281   3.246   3.399  -0.084  0.3559 -0.4536  0.6229
  984PF6-    P115282   0.264   1.799   3.800  0.0383  0.2102 -0.0580
  984PF6-    F215283   0.288   1.883   3.929  0.1060  0.1425 -0.7104
  984PF6-    F315284   0.235   1.710   3.670  0.4454  0.1788 -0.1860
  984PF6-    F415285   0.181   1.689   3.890 -0.1031  0.1721 -0.2026
  984PF6-    F515286   0.350   1.906   3.714 -0.6044  0.4728 -0.0854
  984PF6-    F615287   0.400   1.718   3.831  0.6151 -0.3424 -0.2769
  984PF6-    F715288   0.136   1.883   3.772  0.0910 -0.4374 -0.0250
  985PF6-    P115289   4.146   5.375   0.506 -0.1468  0.1986  0.0233
  985PF6-    F215290   4.041   5.264   0.462  0.2286 -0.1681  0.2252
  985PF6-    F315291   4.255   5.484   0.553 -0.8554 -0.2233  0.5278
  985PF6-    F415292   4.094   5.481   0.398  0.1365  0.0078 -0.0127
  985PF6-    F515293   4.205   5.273   0.617  0.1447  0.6410  0.0060
  985PF6-    F615294   4.250   5.315   0.394  0.7448 -0.6525  0.0745
  985PF6-    F715295   4.043   5.429   0.616 -0.1437  0.4818  0.0660
  986PF6-    P115296   2.773   0.039   2.159  0.0506 -0.0012  0.0324
  986PF6-    F215297   2.624  -0.018   2.167 -0.4246 -0.3250  0.1888
  986PF6-    F315298   2.922   0.094   2.150  0.2265 -0.6154  0.2302
  986PF6-    F415299   2.732   0.117   2.030  0.3811  0.3232  0.3070
  986PF6-    F515300   2.816  -0.040   2.290  0.0177 -0.0698  0.0868
  986PF6-    F615301   2.820  -0.088   2.067  0.5819 -0.5291 -0.2592
  986PF6-    F715302   2.732   0.166   2.251  0.1363 -0.1490  0.6450
  987PF6-    P115303   1.003   4.959   2.304 -0.0723 -0.0442 -0.0941
  987PF6-    F215304   1.050   5.018   2.166 -0.1058 -0.0007 -0.3555
  987PF6-    F315305   0.949   4.893   2.441  0.4949 -0.2176  0.2748
  987PF6-    F415306   0.952   4.826   2.230  0.2157  0.1778 -0.0125
  987PF6-    F515307   1.056   5.091   2.384 -0.4366  0.0774  0.5339
  987PF6-    F615308   0.860   5.026   2.280 -0.0664 -0.0258  0.7109
  987PF6-    F715309   1.148   4.892   2.327 -0.4013 -0.2586  0.2691
  988PF6-    P115310   4.859   3.653   5.414 -0.1662  0.7772 -0.1941
  988PF6-    F215311   4.969   3.738   5.336  0.2827  0.4443 -0.4415
  988PF6-    F315312   4.742   3.566   5.483  0.3074  0.1057  0.0058
  988PF6-    F415313   4.891   3.725   5.555  0.0986 -0.2541 -0.0905
  988PF6-    F515314   4.836   3.574   5.277 -0.2766  0.2667 -0.2590
  988PF6-    F615315   4.973   3.550   5.452 -0.0714 -0.6676  0.3812
  988PF6-    F715316   4.754   3.766   5.368 -0.2646 -0.0563  0.0814
  989PF6-    P115317   5.480   4.619   1.379 -0.1393 -0.1058 -0.4700
  989PF6-    F215318   5.451   4.653   1.230 -0.2716 -0.3433 -0.0560
  989PF6-    F315319   5.515   4.576   1.528  0.1655 -0.0435  0.3498
  989PF6-    F415320   5.325   4.575   1.403 -0.6221 -0.0551 -0.1648
  989PF6-    F515321   5.634   4.659   1.354 -0.5058 -0.5279 -0.0383
  989PF6-    F615322   5.452   4.770   1.424  0.0687  0.1068  0.0973
  989PF6-    F715323   5.516   4.473   1.327  0.2476 -0.0225 -0.1720
  990PF6-    P115324   4.960   1.977   5.421  0.0298  0.2914  0.0964
  990PF6-    F215325   4.911   1.872   5.316 -0.2737 -0.3231  0.6905
  990PF6-    F315326   4.999   2.091   5.527 -0.2955 -0.0574 -0.4580
  990PF6-    F415327   4.837   2.070   5.388  0.8756  0.0197 -0.4825
  990PF6-    F515328   5.087   1.888   5.456 -0.1750 -0.8095 -0.1382
  990PF6-    F615329   5.044   2.073   5.317 -0.1192  0.7603 -0.3201
  990PF6-    F715330   4.878   1.896   5.533  0.4832  0.2778 -0.1170
  991PF6-    P115331   2.893   0.446   4.695  0.2194  0.2225 -0.1791
  991PF6-    F215332   2.967   0.365   4.818  0.0604  0.0900 -0.5408
  991PF6-    F315333   2.816   0.527   4.583  0.4538  0.0867  0.3765
  991PF6-    F415334   2.897   0.310   4.606 -0.4254  0.3726 -0.3961
  991PF6-    F515335   2.877   0.576   4.785 -0.3401  0.1281  0.0192
  991PF6-    F615336   3.030   0.497   4.636  0.5679  0.0366 -0.1245
  991PF6-    F715337   2.748   0.396   4.750 -0.8472  0.0866  0.0566
  992PF6-    P115338   3.739   5.103   3.532  0.3165 -0.3375  0.1264
  992PF6-    F215339   3.575   5.089   3.526 -0.1268 -0.3884 -0.0362
  992PF6-    F315340   3.898   5.111   3.526 -0.2316  0.3558  0.5778
  992PF6-    F415341   3.738   5.188   3.666 -0.0888 -0.4307  0.0031
  992PF6-    F515342   3.745   5.019   3.394  0.1172  0.1920 -0.5663
  992PF6-    F615343   3.724   5.237   3.448  0.2106  0.7691  0.6498
  992PF6-    F715344   3.742   4.960   3.617 -0.5212 -0.2377 -0.4997
  993PF6-    P115345   4.281   1.879   4.549 -0.1850  0.2961 -0.0059
  993PF6-    F215346   4.183   1.842   4.427 -0.0712 -0.0218 -0.2862
  993PF6-    F315347   4.372   1.924   4.683  0.6309 -0.0824  0.8274
  993PF6-    F415348   4.148   1.910   4.634 -0.2249  0.6315 -0.2261
  993PF6-    F515349   4.414   1.843   4.458 -0.4264 -0.3795 -0.3948
  993PF6-    F615350   4.288   2.027   4.487 -0.2914  0.4758  0.1081
  993PF6-    F715351   4.274   1.726   4.602 -0.3504 -0.2226 -0.3388
  994PF6-    P115352   4.901   3.203   1.370  0.3776 -0.0345  0.1490
  994PF6-    F215353   5.042   3.239   1.434 -0.1086 -0.1792 -0.5148
  994PF6-    F315354   4.757   3.175   1.306 -0.2852 -0.6057  0.3901
  994PF6-    F415355   4.920   3.311   1.260 -0.3042 -0.1386  0.3279
  994PF6-    F515356   4.878   3.098   1.484  0.1268 -0.0931 -0.1890
  994PF6-    F615357   4.826   3.313   1.462 -0.0867 -0.0720  0.0963
  994PF6-    F715358   4.968   3.088   1.272 -0.0273 -0.4513  0.7874
  995PF6-    P115359   0.619   4.265   2.408 -0.5413 -0.2941 -0.3206
  995PF6-    F215360   0.518   4.294   2.279 -0.6081  0.3619 -0.1757
  995PF6-    F315361   0.703   4.245   2.542 -0.2136 -0.2539 -0.3182
  995PF6-    F415362   0.749   4.274   2.318  0.3918  0.6491 -0.0339
  995PF6-    F515363   0.490   4.260   2.498 -0.1326 -0.6094 -0.3260
  995PF6-    F615364   0.613   4.112   2.388  0.3244  0.3463 -0.4323
  995PF6-    F715365   0.634   4.414   2.429  0.3585  0.3890  0.3698
  996PF6-    P115366   2.101   5.323   4.524 -0.0936 -0.2254 -0.5809
  996PF6-    F215367   2.164   5.424   4.414  0.4050 -0.4863  0.0947
  996PF6-    F315368   2.043   5.226   4.633  0.3583  0.4152 -0.5196
  996PF6-    F415369   2.109   5.431   4.641  0.5657  0.4000  0.1089
  996PF6-    F515370   2.095   5.206   4.416  0.2287  0.1630 -0.1496
  996PF6-    F615371   2.245   5.271   4.564 -0.8310  0.1182  0.3007
  996PF6-    F715372   1.953   5.374   4.479  0.1475 -0.9457 -0.2503
  997PF6-    P115373   2.976   5.032   0.493 -0.2074 -0.2025  0.6051
  997PF6-    F215374   3.101   4.949   0.537 -0.1771  0.3845  0.2279
  997PF6-    F315375   2.846   5.119   0.452 -0.6492  0.2581 -0.1997
  997PF6-    F415376   3.057   5.108   0.378  0.3689  0.0123  0.1772
  997PF6-    F515377   2.887   4.970   0.610 -0.5902 -0.2361  0.3937
  997PF6-    F615378   3.031   5.146   0.591  0.5813  0.3237 -0.2384
  997PF6-    F715379   2.933   4.918   0.395 -0.7584 -0.0887  0.2439
  998PF6-    P115380   4.112   5.210   1.864  0.0159  0.2376 -0.0729
  998PF6-    F215381   4.231   5.102   1.872 -0.8258 -0.4480 -0.6733
  998PF6-    F315382   3.997   5.320   1.851 -0.3153  0.1214  0.5098
  998PF6-    F415383   4.103   5.176   1.707  0.2977  0.4008 -0.2212
  998PF6-    F515384   4.131   5.241   2.020 -0.2540 -0.3641  0.3839
  998PF6-    F615385   4.220   5.320   1.827 -0.2184 -0.4618 -0.6842
  998PF6-    F715386   4.010   5.095   1.895  0.1961 -0.4861 -0.4808
  999PF6-    P115387   4.917   4.259   4.216  0.1598  0.0432 -0.0172
  999PF6-    F215388   4.861   4.226   4.365 -0.0457  0.5643  0.2141
  999PF6-    F315389   4.964   4.288   4.068  0.3244  0.4841 -0.2296
  999PF6-    F415390   4.975   4.105   4.206  0.4882  0.5071 -0.3972
  999PF6-    F515391   4.871   4.411   4.229 -0.8188  0.3593 -0.3028
  999PF6-    F615392   5.060   4.301   4.280  0.1141  0.2579 -0.5706
  999PF6-    F715393   4.777   4.221   4.163  0.1846  1.5563  0.3314
 1000PF6-    P115394   1.795   4.270   4.143 -0.0050 -0.0579  0.1009
 1000PF6-    F215395   1.761   4.406   4.072 -0.1333 -0.3355 -0.1890
 1000PF6-    F315396   1.824   4.129   4.215 -0.0634  0.2663 -0.1364
 1000PF6-    F415397   1.801   4.341   4.287 -0.3897 -0.2955  0.0544
 1000PF6-    F515398   1.784   4.192   4.009 -0.1207  0.4727 -0.2037
 1000PF6-    F615399   1.958   4.296   4.120 -0.3419 -0.4436 -0.1013
 1000PF6-    F715400   1.639   4.244   4.170  0.4277  0.6716 -0.2318
 1001Na+     N115401   0.582   1.870   2.070  0.1777 -0.0550 -0.2713
 1002Na+     N115402   4.315   4.634   4.878  0.0546 -0.1571 -0.1610
 1003Na+     N115403   2.165   2.265   5.499  0.0139  0.1909  0.1496
 1004Na+     N115404   2.634   1.878   2.117 -0.0410  0.0151 -0.2860
 1005Na+     N115405   1.119   4.181   5.316 -0.2682  0.1511  0.3524
 1006Na+     N115406   4.326   3.091   1.829 -0.0260 -0.6581 -0.1424
 1007Na+     N115407   2.428   4.320   4.569 -0.0257 -0.1140  0.4482
 1008Na+     N115408   1.674   0.216   2.342  0.2104 -0.3302 -0.1675
 1009Na+     N115409   2.966   2.598   1.567 -0.2236  0.1517 -0.1201
 1010Na+     N115410   3.634   3.973   0.402 -0.0244  0.5766  0.2350
 1011Na+     N115411   2.611   0.647   3.975 -0.4017 -0.3649  0.0778
 1012Na+     N115412   0.589   4.489   1.607 -0.2403  0.2814 -0.2198
 1013Na+     N115413   2.240   1.258   4.357  0.0573 -0.4639  0.4800
 1014Na+     N115414   4.972   2.112   4.585  0.4959  0.1579 -0.2397
 1015Na+     N115415   0.984   2.760   4.030 -0.6040 -0.0065 -0.0998
 1016Na+     N115416   4.650   2.926   4.033 -0.4548  0.3293  0.2312
 1017Na+     N115417   0.618   4.715   3.005 -0.1334 -0.2058 -0.3538
 1018Na+     N115418   3.334   2.075   5.042  0.3287  0.3339  0.4669
 1019Na+     N115419   0.920   3.714   3.910  0.1060 -0.4626  0.1025
 1020Na+     N115420   0.090   1.900   5.338 -0.1257  0.4361 -0.0044
 1021Na+     N115421   5.088   5.332   2.217  0.2653 -0.3930 -0.2591
 1022Na+     N115422   0.610   5.465   2.684 -0.1255 -0.1178 -0.0456
 1023Na+     N115423   0.752   0.558   1.762  0.0736  0.2630 -0.1015
 1024Na+     N115424   0.656   2.718   0.328  0.4512  0.1857 -0.0870
 1025Na+     N115425   4.181   2.226   4.368  0.2869  0.0639  0.3939
 1026Na+     N115426   0.102   4.542   4.115 -0.4298  0.2838 -0.0558
 1027Na+     N115427   2.650   1.500   0.988  0.0581 -0.3290  0.0604
 1028Na+     N115428   0.537   3.733   2.720  0.7432 -0.1706 -0.0454
 1029Na+     N115429   3.703   1.052   1.295  0.4635 -0.1061  0.9111
 1030Na+     N115430   1.932   0.864   1.016  0.5016 -0.1176  0.2711
 1031Na+     N115431   4.390   4.548   2.177  0.1393 -0.3654  0.2552
 1032Na+     N115432   3.563   4.382   5.082  0.1316  0.2166 -0.3455
 1033Na+     N115433   0.492   1.601   1.253  0.2542 -0.5883 -0.6832
 1034Na+     N115434   5.017   3.130   0.443 -0.2771  0.6066 -0.0337
 1035Na+     N115435   3.245   3.881   1.588  0.2321 -0.1247  0.1342
 1036Na+     N115436   4.425   1.023   2.871 -0.5819 -0.1329 -0.2463
 1037Na+     N115437   2.455   1.677   3.624  0.0549 -0.0653 -0.5781
 1038Na+     N115438   1.571   0.041   3.349  0.0442  0.8680  0.1507
 1039Na+     N115439   4.817   4.976   1.495  0.1860  0.0118 -0.3336
 1040Na+     N115440   0.243   2.795   4.570  0.1749 -0.1627  0.3033
 1041Na+     N115441   4.199   5.167   2.895 -0.5478  0.0589  0.0675
 1042Na+     N115442   1.453   1.741   0.479  0.3595 -0.0529 -0.1068
 1043Na+     N115443   1.896   3.470   2.593  0.2914  0.1080  0.3889
 1044Na+     N115444   3.377   5.201   1.932  0.2520  0.1576  0.5036
 1045Na+     N115445   4.590   4.336   0.289  0.7463 -0.3012  0.3146
 1046Na+     N115446   3.282   0.954   4.417 -0.1631  0.1472 -0.0045
 1047Na+     N115447   2.925   2.797   5.275  0.3232 -0.1957  0.3304
 1048Na+     N115448   5.374   1.954   0.930 -0.4251 -0.0530  0.2417
 1049Na+     N115449   4.816   2.362   1.715 -0.0500 -0.1674 -0.1666
 1050Na+     N115450   1.729   4.979   4.110 -0.0739 -0.1887  0.0720
 1051Na+     N115451   4.237   3.468   5.289  0.0053 -0.3397  0.2839
 1052Na+     N115452   2.182   4.578   1.885 -0.1262 -0.4356 -0.3094
 1053Na+     N115453   0.528   1.454   4.089  0.1835  0.2233  0.2271
 1054Na+     N115454   3.088   1.127   3.353 -0.0075  0.4684  0.3221
 1055Na+     N115455   5.228   4.965   0.713 -0.0969  0.0056  0.0688
 1056Na+     N115456   3.357   2.301   3.744  0.6055  0.3898 -0.1449
 1057Na+     N115457   1.373   2.320   1.986  0.2575  0.1741 -0.3686
 1058Na+     N115458   4.255   2.938   3.179  0.0578 -0.1025 -0.3108
 1059Na+     N115459   4.230   0.191   2.181  0.4152 -0.4239  0.6504
 1060Na+     N115460   1.561   0.382   4.227  0.3239 -0.4567 -0.4925
 1061Na+     N115461   3.537   0.481   5.140  0.3613  0.2818 -0.4761
 1062Na+     N115462   5.356   4.101   0.249  0.2276  0.3031 -0.2138
 1063Na+     N115463   0.769   4.014   0.614 -0.1500 -0.1123 -0.1999
 1064Na+     N115464   5.351   1.228   3.632 -0.1169 -0.0091 -0.4620
 1065Na+     N115465   3.831   1.886   2.689  0.0831 -0.0950  0.0688
 1066Na+     N115466   1.031   4.266   2.266  0.6779 -0.1656 -0.0794
 1067Na+     N115467   0.826   0.071   0.031 -0.2216  0.3451  0.3333
 1068Na+     N115468   1.539   3.705   4.698 -0.2110  0.0612  0.0774
 1069Na+     N115469   1.990   3.575   0.955 -0.0374 -0.6404 -0.3285
 1070Na+     N115470   0.072   4.244   3.402  0.1229  0.3639  0.1841
 1071Na+     N115471   1.734   1.404   1.745  0.1135  0.0880  0.1952
 1072Na+     N115472   2.533   5.319   4.529  0.6682 -0.5401  0.1577
 1073Na+     N115473   1.953   2.390   0.991  0.1406 -0.1849  0.0737
 1074Na+     N115474   4.665   0.641   5.361 -0.0147  0.5156  0.3815
 1075Na+     N115475   5.167   3.930   1.443  0.2380  0.2444 -0.2669
 1076Na+     N115476   4.966   0.383   1.587  0.5944  0.3548 -0.0407
 1077Na+     N115477   3.464   4.600   2.936  0.3181  0.1634  0.1516
 1078Na+     N115478   0.147   2.107   4.044 -0.0606 -0.0155 -0.5761
 1079Na+     N115479   4.496   3.711   0.973 -0.1903 -0.0276 -0.0781
 1080Na+     N115480   4.857   3.482   4.764 -0.4604 -0.2710 -0.0461
 1081Na+     N115481   4.200   1.789   5.320  0.4176 -0.1196  0.2902
 1082Na+     N115482   2.750   0.379   1.740 -0.4403 -0.3531 -0.0143
 1083Na+     N115483   2.521   2.507   3.995 -0.1270 -0.6195 -0.2188
 1084Na+     N115484   3.200   5.098   3.893  0.4816  0.2403 -0.5775
 1085Na+     N115485   4.143   4.846   0.966 -0.5632 -0.5331 -0.3865
 1086Na+     N115486   5.176   1.001   2.370 -0.5725  0.3199 -0.0421
 1087Na+     N115487   0.331   0.469   3.461  0.2468 -0.1148  0.7783
 1088Na+     N115488   2.686   3.720   0.449 -0.1274 -0.2289 -0.3227
 1089Na+     N115489   0.009   2.031   2.862  0.1117  0.6654 -0.2193
 1090Na+     N115490   0.437   5.376   4.236 -0.1067  0.4781  0.0848
 1091Na+     N115491   3.389   2.832   0.641 -0.6530 -0.1316 -0.5381
 1092Na+     N115492   4.097   0.110   1.265 -0.0664 -0.4217  0.0263
 1093Na+     N115493   4.993   3.391   2.001  0.1628 -0.2338 -0.1357
 1094Na+     N115494   1.270   2.309   5.330 -0.0910  0.0619  0.4309
 1095Na+     N115495   5.155   4.983   3.042 -0.6474  0.0939 -0.5450
 1096Na+     N115496   4.787   1.300   0.180 -0.1594  0.1975  0.2539
 1097Na+     N115497   2.574   5.250   1.062  0.1278 -0.0785  0.1889
 1098Na+     N115498   4.140   5.270   4.126 -0.0964  0.6542  0.4837
 1099Na+     N115499   3.038   2.962   2.419 -0.0615 -0.0837  0.3863
 1100Na+     N115500   2.623   5.431   2.471 -0.4653  0.1374  0.0604
   5.50536   5.50536   5.50536
