DG-THF-PF6-Na      Amber RESP
15500
    1DG      C1    1   0.999   3.477   3.239  0.0221  0.0407 -0.0104
    1DG      C2    2   1.587   3.536   3.640  0.3700 -0.5520 -0.3485
    1DG      H3    3   0.962   3.539   3.320  1.1580  1.3869 -0.4754
    1DG      H4    4   0.943   3.383   3.234 -0.9538  0.5384  1.2315
    1DG      H5    5   0.987   3.528   3.143  2.6758 -0.7549 -0.8625
    1DG      H6    6   1.671   3.603   3.622  1.1989 -1.5538 -0.2830
    1DG      H7    7   1.503   3.596   3.676  0.4822  0.3258 -1.4925
    1DG      H8    8   1.621   3.460   3.709 -2.3199 -1.0997  0.5028
    1DG      O9    9   1.135   3.454   3.264  0.2628  0.0671  0.1266
    1DG     O10   10   1.520   3.469   3.530  0.1187 -0.3978 -0.3575
    1DG     C11   11   1.207   3.362   3.183  0.2259  0.1227  0.3250
    1DG     C12   12   1.611   3.384   3.455  0.3375 -0.4656 -0.3412
    1DG     H13   13   1.177   3.364   3.078  1.6080 -0.3058 -0.0959
    1DG     H14   14   1.175   3.261   3.208  0.1193 -0.1894 -0.9676
    1DG     H15   15   1.610   3.286   3.503 -3.1568 -0.9127 -1.0650
    1DG     H16   16   1.711   3.425   3.457 -0.1045  0.6180  0.8564
    1DG     C17   17   1.358   3.377   3.176 -0.5147  0.1292  0.3969
    1DG     C18   18   1.558   3.371   3.313  0.5130 -0.4012 -0.8031
    1DG     O19   19   1.420   3.349   3.302  0.0356 -0.1545 -0.0066
    1DG     H20   20   1.367   3.486   3.167 -1.7289  0.2570  0.5562
    1DG     H21   21   1.410   3.341   3.088 -2.6893 -1.5625 -0.3020
    1DG     H22   22   1.579   3.459   3.252 -2.1572 -1.1643 -3.0927
    1DG     H23   23   1.610   3.283   3.275  0.3713 -0.9503  0.2574
    2DG      C1   24   4.147   2.585   1.563 -0.4073  0.2578  0.6152
    2DG      C2   25   3.912   2.045   1.355  0.4432  0.0571 -0.0768
    2DG      H3   26   4.055   2.639   1.585 -0.7171 -0.4328  1.0806
    2DG      H4   27   4.234   2.648   1.547  0.6836 -1.0874  1.0485
    2DG      H5   28   4.158   2.513   1.645  0.1059 -1.3395 -0.7868
    2DG      H6   29   3.941   2.001   1.451  2.2899 -0.3661 -0.7747
    2DG      H7   30   3.814   2.089   1.373  0.3460 -0.4823  0.8165
    2DG      H8   31   3.909   1.959   1.288 -0.0943 -0.5009  0.6454
    2DG      O9   32   4.143   2.502   1.445 -0.6730 -0.3289  0.1616
    2DG     O10   33   4.000   2.140   1.309  0.0192 -0.4740 -0.1269
    2DG     C11   34   4.105   2.595   1.342  0.9167  0.4051 -0.0395
    2DG     C12   35   3.950   2.191   1.190  0.3076  0.2353 -0.2594
    2DG     H13   36   4.164   2.686   1.334 -1.1415  1.7376 -0.8470
    2DG     H14   37   4.004   2.628   1.365  1.0295  0.4237  0.4339
    2DG     H15   38   3.851   2.154   1.165  0.3523 -0.4250  0.4915
    2DG     H16   39   4.015   2.144   1.116 -1.2718 -1.4975 -0.6245
    2DG     C17   40   4.126   2.522   1.207 -0.6811  0.1594  0.2125
    2DG     C18   41   3.963   2.341   1.186  0.1181 -0.5249 -0.5314
    2DG     O19   42   4.095   2.381   1.212  0.2232 -0.2944  0.0442
    2DG     H20   43   4.225   2.530   1.163 -0.6463 -1.0069  0.0532
    2DG     H21   44   4.067   2.568   1.128  0.6445  1.8127  0.1338
    2DG     H22   45   3.939   2.372   1.085 -1.7754 -0.9920 -0.2570
    2DG     H23   46   3.885   2.372   1.255  0.3053 -0.1561 -0.4841
    3DG      C1   47   2.319   2.824   1.772 -0.1148 -0.6652 -0.1462
    3DG      C2   48   2.731   2.455   2.279 -0.3555 -0.1132  0.2308
    3DG      H3   49   2.412   2.859   1.728  0.9190 -2.5456  0.4254
    3DG      H4   50   2.242   2.901   1.762  1.9832  1.2682 -3.4426
    3DG      H5   51   2.293   2.741   1.705 -0.7192 -0.8641  0.3184
    3DG      H6   52   2.790   2.474   2.368  1.2227 -2.1441 -0.3100
    3DG      H7   53   2.655   2.378   2.292 -1.5445  0.9041 -0.4346
    3DG      H8   54   2.806   2.431   2.204  0.1394  2.7101 -0.2803
    3DG      O9   55   2.339   2.788   1.905  0.2063 -0.2317 -0.3967
    3DG     O10   56   2.656   2.564   2.241  0.0981  0.3192 -0.0347
    3DG     C11   57   2.392   2.902   1.979 -0.0598 -0.2971 -0.0841
    3DG     C12   58   2.568   2.608   2.342  0.1228  0.1049  1.5194
    3DG     H13   59   2.328   2.990   1.970  0.0593  0.2540  3.3871
    3DG     H14   60   2.478   2.936   1.920 -0.1906  1.4919  0.7009
    3DG     H15   61   2.603   2.604   2.445  0.6235  0.6125  1.3716
    3DG     H16   62   2.481   2.543   2.339 -0.4995  0.9578 -0.4605
    3DG     C17   63   2.419   2.879   2.128  0.4546  0.3247  0.6022
    3DG     C18   64   2.530   2.755   2.296 -0.0095  0.5008 -0.9097
    3DG     O19   65   2.497   2.760   2.157 -0.7101  0.2945  0.0430
    3DG     H20   66   2.328   2.878   2.189 -1.2238  0.5266 -1.7907
    3DG     H21   67   2.480   2.964   2.159  1.4974 -0.4414  0.7272
    3DG     H22   68   2.446   2.783   2.360  1.0298 -0.9700  1.2440
    3DG     H23   69   2.614   2.821   2.320  0.2434  0.1100 -0.7027
    4DG      C1   70   4.686   4.100   2.516 -0.8358  0.3417 -0.1033
    4DG      C2   71   5.059   3.912   1.998 -0.0527  0.3727  0.9256
    4DG      H3   72   4.656   4.182   2.581  0.5466  1.6606 -1.0534
    4DG      H4   73   4.666   4.002   2.559  0.9860  0.4861  1.1899
    4DG      H5   74   4.626   4.108   2.426 -0.7400 -1.7352 -0.4054
    4DG      H6   75   5.128   3.970   1.938 -0.0075 -0.4257  0.1822
    4DG      H7   76   5.087   3.808   1.981  0.9112  1.0576 -2.2791
    4DG      H8   77   4.957   3.938   1.970 -0.1534  1.4419  2.2162
    4DG      O9   78   4.822   4.118   2.459  0.4069 -0.5345 -0.4187
    4DG     O10   79   5.070   3.944   2.143  0.2417 -0.0921  0.5701
    4DG     C11   80   4.923   4.109   2.557 -0.5079  0.1479  0.7658
    4DG     C12   81   5.166   4.048   2.154  0.0911  0.3343  0.8478
    4DG     H13   82   4.948   4.005   2.578  0.8980 -0.0035 -1.3372
    4DG     H14   83   4.921   4.168   2.648 -0.5766  3.1207 -1.0357
    4DG     H15   84   5.125   4.130   2.095  3.4923  0.8106 -1.1116
    4DG     H16   85   5.261   4.040   2.101 -0.6544 -0.2782 -0.4376
    4DG     C17   86   5.053   4.148   2.479  0.2029  0.1076  0.8877
    4DG     C18   87   5.181   4.093   2.297  0.5791  0.7147  0.2429
    4DG     O19   88   5.053   4.085   2.355  0.0059  0.3612 -0.8655
    4DG     H20   89   5.147   4.124   2.528  1.0619 -1.1810 -1.2382
    4DG     H21   90   5.047   4.257   2.471  1.4604  0.0832 -1.1174
    4DG     H22   91   5.251   4.027   2.349  3.2685  0.2635 -3.5312
    4DG     H23   92   5.217   4.196   2.301  1.3392  0.5544 -1.8063
    5DG      C1   93   3.969   5.314   2.210 -0.0678  0.2185 -0.4153
    5DG      C2   94   4.029   5.437   1.508 -0.5683 -0.4443  0.0190
    5DG      H3   95   3.860   5.312   2.208 -0.0815  0.8654 -0.5578
    5DG      H4   96   3.996   5.320   2.315  1.1363 -2.1696 -0.5341
    5DG      H5   97   4.007   5.215   2.185  0.1301 -0.1310  1.1450
    5DG      H6   98   3.924   5.463   1.500  0.1991  3.1691  0.0394
    5DG      H7   99   4.085   5.530   1.497 -0.4194 -0.6765 -1.3302
    5DG      H8  100   4.049   5.374   1.422  1.3132 -1.9755  1.4952
    5DG      O9  101   4.001   5.415   2.114  0.1357 -0.0890  0.1226
    5DG     O10  102   4.065   5.384   1.636  0.3093 -0.0285  0.3393
    5DG     C11  103   4.142   5.436   2.113 -0.9524 -0.8392  0.3165
    5DG     C12  104   4.200   5.375   1.651  0.2914 -0.1055 -0.0377
    5DG     H13  105   4.186   5.412   2.209  1.8614  1.5547 -0.2395
    5DG     H14  106   4.170   5.541   2.106  0.9514 -1.1869  1.8607
    5DG     H15  107   4.256   5.468   1.640  2.7435 -1.2712  1.8266
    5DG     H16  108   4.235   5.296   1.585 -1.4260 -1.4204  0.5537
    5DG     C17  109   4.211   5.346   2.015  0.7386 -1.3486  0.3828
    5DG     C18  110   4.251   5.317   1.784 -0.3191 -0.1349  0.8658
    5DG     O19  111   4.174   5.384   1.880 -0.5424  0.2455 -0.2134
    5DG     H20  112   4.196   5.238   2.027  0.6189 -1.3064  0.6195
    5DG     H21  113   4.318   5.363   2.028  0.3435  2.3167 -0.0867
    5DG     H22  114   4.227   5.211   1.796 -0.8825  0.0339  1.3283
    5DG     H23  115   4.358   5.330   1.798 -0.5107  0.4594  1.9291
    6DG      C1  116   4.654   0.745   3.018 -0.3430  0.7704  0.2151
    6DG      C2  117   4.429   1.395   2.917  0.4680 -0.1102 -0.4535
    6DG      H3  118   4.549   0.762   3.041 -0.3209  2.0732 -0.5623
    6DG      H4  119   4.700   0.668   3.081 -1.5758 -1.5561 -1.5755
    6DG      H5  120   4.650   0.683   2.929  0.3553 -0.6481  1.1124
    6DG      H6  121   4.416   1.475   2.990 -2.9368  1.0937 -2.1890
    6DG      H7  122   4.330   1.394   2.872  0.7014  0.5827 -0.9984
    6DG      H8  123   4.444   1.306   2.979 -0.0475 -1.3306 -2.0122
    6DG      O9  124   4.724   0.866   3.023 -0.2585 -0.6675 -0.1199
    6DG     O10  125   4.532   1.398   2.819  0.1364  0.0664  0.7635
    6DG     C11  126   4.671   0.968   2.944  0.8476 -0.2781  0.1441
    6DG     C12  127   4.662   1.427   2.857  0.6519  0.1259  0.6693
    6DG     H13  128   4.566   0.979   2.967  0.4392 -0.2250 -1.5920
    6DG     H14  129   4.679   0.939   2.839  2.0798  2.8183 -0.7255
    6DG     H15  130   4.666   1.527   2.901  0.8998 -0.9219  3.2314
    6DG     H16  131   4.723   1.427   2.767  0.1200 -0.9890  0.2867
    6DG     C17  132   4.752   1.095   2.976 -0.6818  0.0255  0.3463
    6DG     C18  133   4.719   1.330   2.965 -0.2524  0.3632 -0.2591
    6DG     O19  134   4.686   1.200   2.912  0.5084  0.0125 -0.1941
    6DG     H20  135   4.852   1.077   2.939  0.4363  0.3898  2.9728
    6DG     H21  136   4.776   1.108   3.082  2.1825  0.1378 -0.2531
    6DG     H22  137   4.827   1.340   2.977 -0.0856 -0.8061 -0.6728
    6DG     H23  138   4.672   1.339   3.063  1.5379 -2.4834  1.0003
    7DG      C1  139   5.208   3.286   4.349 -0.1930  0.1674  0.5773
    7DG      C2  140   5.006   3.880   4.575  0.4828  0.3044 -0.0489
    7DG      H3  141   5.147   3.261   4.263  1.5626 -1.2646 -0.3023
    7DG      H4  142   5.144   3.266   4.436 -1.1665 -0.5735 -0.2904
    7DG      H5  143   5.300   3.227   4.349 -0.4094 -0.1693  0.3209
    7DG      H6  144   4.915   3.870   4.517  0.8541  1.7051 -0.9322
    7DG      H7  145   5.003   3.817   4.664 -0.3920  2.1546  1.3082
    7DG      H8  146   5.027   3.982   4.610  0.1775  0.5005 -0.4377
    7DG      O9  147   5.247   3.420   4.354  0.2954 -0.5050  0.4816
    7DG     O10  148   5.112   3.831   4.498 -0.8412  0.0226  0.0477
    7DG     C11  149   5.303   3.469   4.229 -0.0247 -0.1932 -0.4824
    7DG     C12  150   5.139   3.894   4.370 -0.2863 -0.0487 -0.1633
    7DG     H13  151   5.226   3.456   4.153 -0.3416 -1.6535  0.0431
    7DG     H14  152   5.377   3.397   4.193 -0.2580 -0.5370 -0.2883
    7DG     H15  153   5.164   3.999   4.385  4.2804 -0.9213 -0.2243
    7DG     H16  154   5.060   3.873   4.299  1.6546  0.3382 -2.5874
    7DG     C17  155   5.352   3.616   4.242  0.9234  0.3215 -0.1564
    7DG     C18  156   5.264   3.826   4.307  0.2565 -0.0027  0.4039
    7DG     O19  157   5.235   3.696   4.260 -0.6538 -1.1748  0.3702
    7DG     H20  158   5.413   3.632   4.153  0.0019  0.0526 -0.8583
    7DG     H21  159   5.420   3.617   4.327  0.5105  1.6342  0.1816
    7DG     H22  160   5.297   3.880   4.218  0.8742 -1.8792 -0.5548
    7DG     H23  161   5.343   3.821   4.382  1.8057 -2.5074 -1.2595
    8DG      C1  162   4.052   1.803   2.276  0.4988  0.2762 -0.8912
    8DG      C2  163   4.724   1.926   2.440 -0.8388  0.0226 -0.1305
    8DG      H3  164   4.098   1.762   2.186  0.2090  0.1296 -0.9716
    8DG      H4  165   3.955   1.845   2.250 -0.7484 -2.6792 -1.4151
    8DG      H5  166   4.023   1.718   2.338  0.9968 -0.6567 -1.8891
    8DG      H6  167   4.775   2.017   2.407 -0.6873  0.1315  0.4000
    8DG      H7  168   4.787   1.885   2.520  3.0740  1.0297 -2.4161
    8DG      H8  169   4.748   1.847   2.369 -0.3313  0.7401 -0.7734
    8DG      O9  170   4.136   1.893   2.343  0.7998 -0.5891  0.2966
    8DG     O10  171   4.591   1.942   2.464  0.7574 -0.2076  0.5181
    8DG     C11  172   4.087   1.932   2.469  0.3681 -0.2832 -0.3969
    8DG     C12  173   4.563   2.016   2.580  0.5638  0.0017  0.1372
    8DG     H13  174   4.068   1.848   2.534  1.0772  0.2447  0.5267
    8DG     H14  175   3.996   1.991   2.460  1.2491  1.0001 -1.3970
    8DG     H15  176   4.635   2.097   2.593 -0.7983  1.1765  0.6894
    8DG     H16  177   4.576   1.947   2.663 -2.2225  0.4874  1.0941
    8DG     C17  178   4.194   2.020   2.540 -0.0772 -0.2225 -0.0736
    8DG     C18  179   4.422   2.064   2.595  0.0467  0.1576  0.0461
    8DG     O19  180   4.328   1.969   2.536 -0.0698  0.1309 -0.1409
    8DG     H20  181   4.159   2.048   2.639  0.6992 -1.8351  0.6858
    8DG     H21  182   4.184   2.121   2.499 -2.3814 -0.7934 -1.1106
    8DG     H22  183   4.406   2.098   2.697  0.8304  0.7803 -0.0340
    8DG     H23  184   4.405   2.149   2.529 -2.5459 -1.9613 -2.2900
    9DG      C1  185   4.503   5.277   2.898  0.7037 -0.1335 -0.2991
    9DG      C2  186   4.671   4.651   3.252  0.3951  0.9244  0.3718
    9DG      H3  187   4.433   5.358   2.918 -0.4389 -1.1364 -0.0971
    9DG      H4  188   4.470   5.232   2.804 -1.7349 -0.0588  0.4339
    9DG      H5  189   4.602   5.319   2.885  0.5784  0.9162  1.8292
    9DG      H6  190   4.647   4.604   3.157  1.3095  0.9019  0.1407
    9DG      H7  191   4.773   4.618   3.275  1.0776 -0.1197 -3.3781
    9DG      H8  192   4.596   4.619   3.324  0.5649 -0.5036 -0.0682
    9DG      O9  193   4.498   5.190   3.017  0.6206 -0.5521  0.1170
    9DG     O10  194   4.663   4.789   3.232  0.3467 -0.2062 -0.1745
    9DG     C11  195   4.530   5.257   3.145 -0.0910  0.0762  0.1432
    9DG     C12  196   4.701   4.875   3.331 -0.0797 -0.5641  0.3701
    9DG     H13  197   4.484   5.355   3.149 -0.1419  0.0695 -0.2465
    9DG     H14  198   4.637   5.277   3.147  0.0463 -0.6278  0.3638
    9DG     H15  199   4.809   4.863   3.345  0.1516  0.4490 -0.4116
    9DG     H16  200   4.649   4.849   3.423 -0.7078  1.7603  0.7366
    9DG     C17  201   4.493   5.167   3.265 -0.3266 -0.7227 -0.1788
    9DG     C18  202   4.677   5.021   3.301 -0.5346 -0.5383 -0.3067
    9DG     O19  203   4.542   5.034   3.256 -0.7549 -0.2230  0.4198
    9DG     H20  204   4.385   5.158   3.260 -0.2444 -1.0835 -1.4995
    9DG     H21  205   4.519   5.219   3.358  1.6491 -2.3128  0.2273
    9DG     H22  206   4.705   5.091   3.380 -1.4124 -0.8254  0.2687
    9DG     H23  207   4.734   5.050   3.212 -1.3252  1.3847 -0.2342
   10DG      C1  208   4.964   2.172   3.143  0.2093  0.0095 -0.0479
   10DG      C2  209   5.229   1.918   2.737 -0.0461  0.7008  0.1589
   10DG      H3  210   5.011   2.128   3.055  1.2111  0.7666  0.0886
   10DG      H4  211   4.935   2.271   3.109  2.0673  0.2285 -1.1176
   10DG      H5  212   4.875   2.109   3.151  2.0449 -2.6156  1.2980
   10DG      H6  213   5.310   1.890   2.671 -1.8434 -0.0656 -1.8202
   10DG      H7  214   5.140   1.857   2.723  1.3150 -0.9134 -1.9052
   10DG      H8  215   5.202   2.011   2.686 -0.3757  0.7782  0.4666
   10DG      O9  216   5.057   2.168   3.256  0.4715  0.2662 -0.2207
   10DG     O10  217   5.258   1.942   2.870 -0.3613 -0.6312 -0.0493
   10DG     C11  218   5.176   2.243   3.234 -0.3478 -0.1550  0.3268
   10DG     C12  219   5.386   1.996   2.883 -0.5174 -0.0411  0.5041
   10DG     H13  220   5.206   2.299   3.322  1.0402  0.3035 -0.3962
   10DG     H14  221   5.163   2.313   3.151 -1.3493 -1.4012 -0.6176
   10DG     H15  222   5.381   2.086   2.823 -0.3552 -1.0006 -1.0071
   10DG     H16  223   5.454   1.921   2.843  0.7154  0.1762  2.0761
   10DG     C17  224   5.297   2.152   3.202  0.0973  0.1037 -0.0451
   10DG     C18  225   5.398   2.028   3.040  0.3284 -0.1912 -0.3259
   10DG     O19  226   5.280   2.094   3.073 -0.1522 -0.3454 -0.5660
   10DG     H20  227   5.306   2.072   3.275  3.0456 -0.6009 -1.0709
   10DG     H21  228   5.387   2.214   3.204 -1.7355  3.0136 -0.5990
   10DG     H22  229   5.401   1.937   3.099  0.2095 -0.4628 -0.7308
   10DG     H23  230   5.488   2.084   3.065  0.5635 -1.1754  1.1117
   11DG      C1  231   5.440   2.742   4.807 -0.7909 -0.3108  1.0356
   11DG      C2  232   6.107   2.519   4.980  0.0623  0.2254 -0.3964
   11DG      H3  233   5.417   2.647   4.759  1.7600 -0.8712  0.7535
   11DG      H4  234   5.396   2.821   4.746  2.9834  0.4763 -1.0197
   11DG      H5  235   5.391   2.737   4.904 -0.7211  0.2990  1.1089
   11DG      H6  236   6.202   2.566   5.007  0.3211  0.4286 -1.5898
   11DG      H7  237   6.064   2.469   5.066 -0.4142  5.5859  2.9086
   11DG      H8  238   6.125   2.441   4.906 -0.5871 -1.0089  0.7158
   11DG      O9  239   5.580   2.752   4.803 -0.0821  0.1621 -0.3062
   11DG     O10  240   6.007   2.608   4.933  0.3056  0.1252 -0.2788
   11DG     C11  241   5.624   2.867   4.874 -0.2726  0.4599  0.0741
   11DG     C12  242   6.046   2.682   4.818  0.1974  0.0328  0.2634
   11DG     H13  243   5.625   2.852   4.981 -0.5802 -0.5866 -0.0594
   11DG     H14  244   5.564   2.957   4.859  1.2420  1.7925  1.6365
   11DG     H15  245   6.011   2.626   4.731 -1.6853 -1.3001  1.7753
   11DG     H16  246   6.154   2.699   4.826  0.2215 -0.9865  4.1849
   11DG     C17  247   5.759   2.899   4.823 -0.0816  0.4344  0.2148
   11DG     C18  248   5.973   2.808   4.812 -0.3179  0.3732  0.1042
   11DG     O19  249   5.841   2.782   4.818  0.9691 -0.6200 -0.7024
   11DG     H20  250   5.798   2.983   4.881 -0.4668 -0.2087  1.4476
   11DG     H21  251   5.750   2.931   4.719  0.6354  1.9203  0.5776
   11DG     H22  252   6.005   2.868   4.897  2.9056  0.2816 -0.8937
   11DG     H23  253   6.002   2.864   4.723  1.5081  0.9012  0.9648
   12DG      C1  254   1.555   1.914   1.686 -0.0948  0.5092 -0.7973
   12DG      C2  255   2.278   1.828   1.311 -0.4015 -0.1695  0.0999
   12DG      H3  256   1.479   1.836   1.690 -0.7855  1.1834 -0.5011
   12DG      H4  257   1.529   1.976   1.601 -0.7331  1.3864  0.0148
   12DG      H5  258   1.540   1.979   1.772 -0.2931  0.5721 -0.8798
   12DG      H6  259   2.243   1.736   1.263 -0.5390 -1.1300  1.9352
   12DG      H7  260   2.270   1.915   1.246  0.7303  0.5833  0.9379
   12DG      H8  261   2.385   1.822   1.334 -0.4989  0.8438  0.8705
   12DG      O9  262   1.689   1.863   1.698  0.0661 -0.2356 -0.1807
   12DG     O10  263   2.203   1.847   1.426 -0.3500 -0.4611  0.2573
   12DG     C11  264   1.791   1.954   1.728 -0.4265 -0.5067  0.9893
   12DG     C12  265   2.184   1.727   1.515  1.1246 -0.1354  0.0046
   12DG     H13  266   1.775   2.001   1.824 -0.8854  1.4495  0.0047
   12DG     H14  267   1.797   2.035   1.655  0.1994 -0.9958  0.4846
   12DG     H15  268   2.278   1.684   1.548  1.1943 -0.2619 -0.3521
   12DG     H16  269   2.136   1.640   1.469 -2.1783  0.6877  1.5920
   12DG     C17  270   1.931   1.882   1.749  0.7241  0.3845  0.3028
   12DG     C18  271   2.109   1.751   1.650  0.3594  0.0577 -0.0006
   12DG     O19  272   1.981   1.819   1.630  0.3082  0.5311 -0.1464
   12DG     H20  273   1.909   1.810   1.828 -0.6828  1.9502  1.4251
   12DG     H21  274   1.986   1.967   1.788 -0.4271  1.3711 -0.1599
   12DG     H22  275   2.103   1.654   1.699  2.1797  0.0448  0.2400
   12DG     H23  276   2.178   1.801   1.718  0.9871 -0.3515 -0.3302
   13DG      C1  277   4.633   0.426   4.770 -0.4721  0.3305 -0.7202
   13DG      C2  278   4.323   0.315   4.173  0.5632 -0.4072  0.1218
   13DG      H3  279   4.722   0.487   4.789  0.3610  0.1320 -3.5262
   13DG      H4  280   4.654   0.321   4.752 -2.8300 -0.3553  0.1574
   13DG      H5  281   4.580   0.421   4.865  2.0347  1.5321  0.8389
   13DG      H6  282   4.267   0.330   4.081  0.3549 -1.0969  0.1275
   13DG      H7  283   4.427   0.289   4.154  0.1471 -0.4561 -2.3152
   13DG      H8  284   4.279   0.225   4.216 -0.3359  0.0608  0.2085
   13DG      O9  285   4.541   0.472   4.665 -0.1964  0.4438 -0.1477
   13DG     O10  286   4.305   0.411   4.280 -0.5628  0.3010  0.8494
   13DG     C11  287   4.534   0.617   4.660 -0.0577  1.0270  0.0275
   13DG     C12  288   4.304   0.538   4.242  0.0660 -1.4325 -0.0254
   13DG     H13  289   4.631   0.644   4.618  1.1019 -1.5503  0.8593
   13DG     H14  290   4.524   0.661   4.760 -0.5655  0.7996  0.0763
   13DG     H15  291   4.224   0.570   4.175  0.9788 -1.6562 -1.2616
   13DG     H16  292   4.394   0.576   4.194 -0.2962  0.7341  0.8981
   13DG     C17  293   4.425   0.665   4.573  0.2953  1.2063 -0.2917
   13DG     C18  294   4.295   0.621   4.374  0.8266 -0.2621  0.2675
   13DG     O19  295   4.418   0.601   4.443  0.1701 -0.0538 -0.6960
   13DG     H20  296   4.413   0.773   4.577  0.1211  1.1631  0.4707
   13DG     H21  297   4.342   0.624   4.631  0.4334  0.6517 -0.4816
   13DG     H22  298   4.290   0.726   4.347 -0.6864 -0.9407 -2.5529
   13DG     H23  299   4.216   0.591   4.442  1.3869 -0.0859  0.9995
   14DG      C1  300   1.776   4.176   5.068  0.2757  0.1315  0.0708
   14DG      C2  301   1.742   4.605   4.551 -0.5184 -0.1302  0.0925
   14DG      H3  302   1.732   4.077   5.061 -3.8235  1.7943 -0.9578
   14DG      H4  303   1.688   4.238   5.082  1.2230  1.1989  1.6414
   14DG      H5  304   1.845   4.186   5.152  1.1061 -0.7738 -0.4854
   14DG      H6  305   1.785   4.665   4.470  0.2637 -2.9410 -1.7387
   14DG      H7  306   1.673   4.528   4.517  3.8274 -4.2137 -0.5234
   14DG      H8  307   1.693   4.680   4.613 -1.7481  0.0258 -1.0285
   14DG      O9  308   1.827   4.227   4.949 -0.7106  0.1687  0.0101
   14DG     O10  309   1.849   4.526   4.605  0.6711  0.1715  0.3893
   14DG     C11  310   1.885   4.122   4.873 -0.2163  0.1373  0.2217
   14DG     C12  311   1.897   4.423   4.513 -0.2742  0.4133  0.0291
   14DG     H13  312   1.807   4.054   4.836  1.7620 -2.7292  0.9830
   14DG     H14  313   1.944   4.061   4.942 -1.5115  0.2120  1.4304
   14DG     H15  314   1.951   4.463   4.427 -0.0430 -0.2727 -0.1579
   14DG     H16  315   1.820   4.357   4.473 -0.4664  1.4978 -1.4973
   14DG     C17  316   1.983   4.173   4.766 -0.4780 -0.5012  0.6761
   14DG     C18  317   1.989   4.334   4.590 -0.5406  0.3106  0.5941
   14DG     O19  318   1.914   4.275   4.698 -0.1048 -0.0903  0.7148
   14DG     H20  319   2.027   4.093   4.707  1.2400  0.5419  0.4866
   14DG     H21  320   2.076   4.211   4.810 -0.5896  1.3961 -0.6176
   14DG     H22  321   2.033   4.259   4.524 -1.0220  2.2533 -2.0825
   14DG     H23  322   2.066   4.400   4.630 -0.3791  1.1089 -0.9299
   15DG      C1  323   3.458   4.055   4.840  0.2973 -0.7602  1.0680
   15DG      C2  324   2.908   3.636   5.002 -0.9614 -0.1601 -0.0227
   15DG      H3  325   3.487   3.996   4.753  2.4475  3.5650 -1.5361
   15DG      H4  326   3.555   4.097   4.867 -0.6642  2.3545  0.0815
   15DG      H5  327   3.393   4.132   4.798  0.1059 -1.7083 -0.4560
   15DG      H6  328   2.919   3.555   4.930 -1.6466  0.5472 -0.9528
   15DG      H7  329   2.836   3.606   5.077  2.7168 -1.4630  3.3841
   15DG      H8  330   2.877   3.712   4.930 -0.7958 -0.3618 -0.3118
   15DG      O9  331   3.391   3.993   4.946 -0.0312 -0.4108  0.3025
   15DG     O10  332   3.033   3.664   5.064  0.4142  0.1894  0.3376
   15DG     C11  333   3.480   3.914   5.021  0.2796  0.3441 -0.4524
   15DG     C12  334   3.047   3.753   5.172  0.3832  0.2731 -0.3214
   15DG     H13  335   3.574   3.958   5.054  0.5352 -0.1631 -0.5033
   15DG     H14  336   3.507   3.827   4.961  0.5607 -0.6941  1.1170
   15DG     H15  337   2.997   3.705   5.257 -0.2508 -0.4544 -1.0849
   15DG     H16  338   2.994   3.848   5.158 -0.2146  0.7373  3.8207
   15DG     C17  339   3.396   3.862   5.140  0.7380 -0.0705 -0.3669
   15DG     C18  340   3.187   3.780   5.210 -0.0591  0.3362  0.0883
   15DG     O19  341   3.267   3.839   5.107  0.3968  0.2447  0.0067
   15DG     H20  342   3.397   3.936   5.221  0.5679 -2.1522  1.6593
   15DG     H21  343   3.444   3.767   5.166 -0.4002 -0.2448  1.2461
   15DG     H22  344   3.189   3.819   5.312 -1.1092  2.7423 -0.7315
   15DG     H23  345   3.227   3.679   5.224 -3.6033 -1.5500 -1.9974
   16DG      C1  346   1.587   1.200   2.886  0.0145  0.2706 -0.3844
   16DG      C2  347   2.049   1.121   2.403 -0.0295 -0.5231 -0.2282
   16DG      H3  348   1.614   1.181   2.989 -0.8249  0.2485 -0.1606
   16DG      H4  349   1.551   1.104   2.851  0.5902  0.4123 -1.4256
   16DG      H5  350   1.500   1.265   2.883  1.0378  1.7499  0.4421
   16DG      H6  351   2.142   1.092   2.452  1.2034 -0.0912 -2.1837
   16DG      H7  352   1.995   1.034   2.366 -0.2271 -0.9204  0.9488
   16DG      H8  353   2.087   1.174   2.315  2.5294 -1.3627  0.2986
   16DG      O9  354   1.691   1.266   2.818  0.2396  0.7045 -0.3352
   16DG     O10  355   1.971   1.208   2.480 -0.2264 -0.2594 -0.2529
   16DG     C11  356   1.734   1.387   2.877  0.7730 -0.5531 -0.6415
   16DG     C12  357   2.032   1.339   2.501  0.1062  0.0911  0.0578
   16DG     H13  358   1.798   1.364   2.962 -1.7275  0.0163  1.5072
   16DG     H14  359   1.654   1.448   2.918  0.9699 -1.8683  1.8582
   16DG     H15  360   2.057   1.387   2.406 -2.2487  2.0287  0.3209
   16DG     H16  361   2.130   1.327   2.546  0.7557  0.9510 -1.0842
   16DG     C17  362   1.804   1.472   2.764  0.2608  0.0198  0.1238
   16DG     C18  363   1.951   1.442   2.577 -0.8174  0.0262  0.2124
   16DG     O19  364   1.898   1.382   2.703  0.6122  0.5576  0.3768
   16DG     H20  365   1.855   1.547   2.824  1.3707 -0.6295  0.0242
   16DG     H21  366   1.727   1.509   2.697 -0.4641 -0.3856  0.7161
   16DG     H22  367   2.014   1.530   2.593 -0.0605 -0.3511 -0.5928
   16DG     H23  368   1.868   1.467   2.512 -1.0940  0.0628  0.5794
   17DG      C1  369   3.307   4.454   0.326 -0.2199  0.1167  0.2061
   17DG      C2  370   3.609   4.197  -0.230 -0.7461  0.5705  0.5869
   17DG      H3  371   3.328   4.550   0.373  0.6769  0.1077 -0.1483
   17DG      H4  372   3.355   4.367   0.371  0.1716 -0.6910 -1.6653
   17DG      H5  373   3.203   4.423   0.316  0.0211 -1.0956  1.2426
   17DG      H6  374   3.509   4.174  -0.265  0.1490 -2.1858 -0.4487
   17DG      H7  375   3.681   4.190  -0.312 -2.4046  1.6387 -1.0403
   17DG      H8  376   3.634   4.131  -0.147  0.4871 -0.2332 -0.3762
   17DG      O9  377   3.363   4.451   0.196  0.2174 -0.7108 -0.0358
   17DG     O10  378   3.612   4.327  -0.188 -0.7769 -0.1489 -0.4102
   17DG     C11  379   3.500   4.475   0.202  0.0392 -0.0215 -0.5458
   17DG     C12  380   3.746   4.374  -0.151  0.0865  0.1269 -0.6628
   17DG     H13  381   3.562   4.428   0.279 -0.4146 -2.8233 -1.7756
   17DG     H14  382   3.506   4.582   0.226  0.6941 -0.5577  1.8993
   17DG     H15  383   3.812   4.374  -0.238  2.2830  0.6905  0.9421
   17DG     H16  384   3.789   4.302  -0.082 -2.1827  0.2109  0.9613
   17DG     C17  385   3.559   4.430   0.072 -0.0579  0.1175  0.4158
   17DG     C18  386   3.725   4.505  -0.084 -0.4152 -0.1249  0.8436
   17DG     O19  387   3.683   4.504   0.047  0.4235  0.2023 -0.3931
   17DG     H20  388   3.489   4.454  -0.008 -2.4001  0.1402  2.3669
   17DG     H21  389   3.568   4.322   0.077  2.1199  0.2343  0.0431
   17DG     H22  390   3.824   4.550  -0.077 -1.2491  1.6882  2.0223
   17DG     H23  391   3.659   4.564  -0.148 -0.1676 -0.6732  0.0641
   18DG      C1  392   2.248   1.262   4.748  0.6433 -0.4686  0.2186
   18DG      C2  393   2.146   0.788   5.550 -0.3805 -0.3255 -0.1413
   18DG      H3  394   2.197   1.175   4.707 -0.3413  0.9909 -1.8187
   18DG      H4  395   2.356   1.245   4.748  0.8291  0.5711 -0.5576
   18DG      H5  396   2.223   1.348   4.686  0.9572 -0.1682  0.5015
   18DG      H6  397   2.227   0.727   5.510 -1.7642 -2.5185  0.1954
   18DG      H7  398   2.163   0.799   5.657  1.2559 -2.5415 -0.0970
   18DG      H8  399   2.057   0.726   5.537 -1.4552  0.4624  2.7253
   18DG      O9  400   2.204   1.283   4.886  0.3658  0.3936 -0.0801
   18DG     O10  401   2.137   0.912   5.482  0.0477  0.0837  0.1214
   18DG     C11  402   2.238   1.170   4.961 -0.8399  0.1705  0.4620
   18DG     C12  403   2.152   0.904   5.340 -0.0931  0.5496 -0.7020
   18DG     H13  404   2.347   1.165   4.972 -0.4047 -1.6422 -3.2427
   18DG     H14  405   2.208   1.076   4.914 -0.2303  0.4813 -0.5878
   18DG     H15  406   2.073   0.849   5.290  0.0125 -1.9768  1.6627
   18DG     H16  407   2.235   0.838   5.314  0.2312 -0.4961  2.4501
   18DG     C17  408   2.174   1.176   5.096 -0.2750  1.1118  0.0499
   18DG     C18  409   2.186   1.044   5.288  0.4202 -0.6657 -0.1411
   18DG     O19  410   2.222   1.046   5.155 -0.4949  0.2118  0.1460
   18DG     H20  411   2.067   1.184   5.081 -0.1567  1.7183 -0.5216
   18DG     H21  412   2.217   1.260   5.151 -0.3973  0.3389  1.3885
   18DG     H22  413   2.094   1.100   5.305  2.0013  2.3835 -0.9345
   18DG     H23  414   2.256   1.102   5.348 -0.6423  0.6730 -0.1523
   19DG      C1  415   0.280   2.682   1.100 -0.2900  0.5627  0.1051
   19DG      C2  416   0.767   2.271   1.433  0.7136 -0.3854 -0.2726
   19DG      H3  417   0.326   2.744   1.176 -0.3935 -0.9853  1.4739
   19DG      H4  418   0.190   2.634   1.138  0.1043 -2.3346 -2.2403
   19DG      H5  419   0.251   2.742   1.013  3.3289  1.6678 -0.4819
   19DG      H6  420   0.837   2.328   1.494 -0.6999  0.1238  0.9220
   19DG      H7  421   0.678   2.247   1.491 -0.9306  1.2249 -1.9635
   19DG      H8  422   0.821   2.183   1.398 -1.5893 -1.6340 -0.9053
   19DG      O9  423   0.384   2.587   1.069  0.2256  0.3720  0.1295
   19DG     O10  424   0.708   2.342   1.324 -0.7903 -0.0467  0.0212
   19DG     C11  425   0.490   2.652   1.005 -0.0420 -0.5188 -0.0648
   19DG     C12  426   0.811   2.416   1.261  0.7171 -0.8284 -0.2423
   19DG     H13  427   0.513   2.744   1.059  0.6185  0.2228 -1.5374
   19DG     H14  428   0.459   2.685   0.905 -0.3535  1.9238  0.7727
   19DG     H15  429   0.906   2.364   1.275  1.7830  1.3989  1.3317
   19DG     H16  430   0.815   2.509   1.317 -0.4413 -0.7599 -0.2465
   19DG     C17  431   0.616   2.567   0.994 -0.3197  0.0866 -1.1339
   19DG     C18  432   0.769   2.432   1.118  0.1258 -0.3287  0.5412
   19DG     O19  433   0.651   2.504   1.121  0.5956  0.2000  0.3131
   19DG     H20  434   0.704   2.623   0.962  2.2904 -2.8994  0.3006
   19DG     H21  435   0.597   2.489   0.920 -0.1757 -0.8301 -0.2244
   19DG     H22  436   0.849   2.491   1.072  0.5142 -0.1066  1.4693
   19DG     H23  437   0.752   2.340   1.063  2.8834 -1.5055  1.4287
   20DG      C1  438   3.067   4.816   5.417 -0.1489 -0.8553  0.3044
   20DG      C2  439   2.875   4.888   6.001 -0.1635  0.2393  0.0818
   20DG      H3  440   2.973   4.759   5.411 -0.2419 -1.0321  2.7331
   20DG      H4  441   3.123   4.775   5.333  1.7381 -0.3924  1.3000
   20DG      H5  442   3.035   4.917   5.393  2.5947 -0.2014 -1.0345
   20DG      H6  443   2.919   4.850   6.093 -0.8476 -1.1164 -0.1171
   20DG      H7  444   2.801   4.967   6.012 -0.8525 -0.4775  0.6772
   20DG      H8  445   2.807   4.804   5.981  3.0765 -2.9330  1.2825
   20DG      O9  446   3.128   4.811   5.543  0.2499  0.8615 -0.1634
   20DG     O10  447   2.974   4.891   5.899  0.0102 -0.1362  0.2071
   20DG     C11  448   3.257   4.878   5.550 -1.2040  0.0090 -0.1738
   20DG     C12  449   3.081   4.989   5.925  0.4063 -0.2653 -0.6793
   20DG     H13  450   3.242   4.985   5.534  0.2773 -0.0890 -2.8390
   20DG     H14  451   3.317   4.849   5.464 -2.3308  0.6685 -1.2209
   20DG     H15  452   3.147   4.954   6.005 -0.6856  0.8008  0.7576
   20DG     H16  453   3.046   5.087   5.958 -1.1883  0.3811 -3.9384
   20DG     C17  454   3.325   4.850   5.683 -0.0177  0.3703 -0.7229
   20DG     C18  455   3.171   4.992   5.806  0.1479 -0.3309  0.1539
   20DG     O19  456   3.220   4.865   5.779  0.4323  0.1213  0.9303
   20DG     H20  457   3.402   4.923   5.709 -0.6136  0.3660  1.2173
   20DG     H21  458   3.373   4.753   5.677  2.1092  1.4555 -3.4284
   20DG     H22  459   3.103   5.038   5.734 -0.2294  0.7653  1.1626
   20DG     H23  460   3.258   5.055   5.822 -0.0642 -0.0895  0.3725
   21DG      C1  461   0.465   2.571   2.129 -0.4731  0.0017  0.6315
   21DG      C2  462   0.332   3.294   1.676 -0.2872  0.1747  0.3414
   21DG      H3  463   0.527   2.557   2.218 -1.1901  2.0738  1.5213
   21DG      H4  464   0.537   2.570   2.047 -1.8967  1.5924 -0.6820
   21DG      H5  465   0.397   2.489   2.104  0.3427 -0.5104  0.0315
   21DG      H6  466   0.279   3.385   1.646  0.1463  0.2626 -0.1863
   21DG      H7  467   0.433   3.326   1.703 -0.1152 -0.8605  0.9429
   21DG      H8  468   0.349   3.233   1.588 -0.4976 -1.8435  1.6502
   21DG      O9  469   0.394   2.691   2.126  0.4113 -0.3378 -0.5283
   21DG     O10  470   0.262   3.229   1.776 -0.8278 -0.0927 -0.1467
   21DG     C11  471   0.272   2.687   2.053 -0.9824  0.0443 -0.8822
   21DG     C12  472   0.332   3.116   1.828  0.6350  0.0694 -0.3147
   21DG     H13  473   0.207   2.615   2.103  1.2260 -1.0728  0.5351
   21DG     H14  474   0.275   2.641   1.954 -1.4868  0.4977 -1.1159
   21DG     H15  475   0.418   3.170   1.867 -1.0854  1.1934  2.2173
   21DG     H16  476   0.365   3.047   1.751  1.3229  0.0088  0.0317
   21DG     C17  477   0.202   2.834   2.038  0.7518  0.3227  0.8573
   21DG     C18  478   0.233   3.046   1.929 -0.6667 -0.7803  0.1648
   21DG     O19  479   0.294   2.926   1.980 -0.0430 -0.2094  0.5702
   21DG     H20  480   0.175   2.857   2.142 -0.3949 -2.1307  1.1825
   21DG     H21  481   0.108   2.824   1.984  0.3134 -1.1860  1.8141
   21DG     H22  482   0.212   3.122   2.004 -2.1934  1.2857 -2.1677
   21DG     H23  483   0.138   3.029   1.877 -1.4176 -1.6857  1.7641
   22DG      C1  484   0.420   4.722   0.104  0.3015 -0.4101 -0.0776
   22DG      C2  485   1.024   4.760  -0.258  0.8351 -0.4683  1.0392
   22DG      H3  486   0.476   4.695   0.193 -0.1241 -0.4912  0.1668
   22DG      H4  487   0.374   4.641   0.047 -0.0967 -0.3380  0.1375
   22DG      H5  488   0.337   4.786   0.136  0.1439 -0.6891  0.0794
   22DG      H6  489   1.060   4.783  -0.358 -0.0572 -0.1631  0.7732
   22DG      H7  490   1.117   4.729  -0.211  1.5285 -2.1129 -1.2354
   22DG      H8  491   0.948   4.683  -0.269  0.7646 -0.1479 -1.2000
   22DG      O9  492   0.503   4.810   0.027 -0.3044 -0.6090  0.0965
   22DG     O10  493   0.960   4.872  -0.204 -0.1156 -0.3049  0.5875
   22DG     C11  494   0.551   4.921   0.094 -0.4554 -0.2042 -0.2531
   22DG     C12  495   0.849   4.917  -0.276  0.3300  0.1745  0.5159
   22DG     H13  496   0.632   4.878   0.154  0.2814  0.1691 -0.9694
   22DG     H14  497   0.470   4.967   0.149 -0.2758  1.3537 -1.2499
   22DG     H15  498   0.788   4.834  -0.311  0.0903 -0.3095  2.0480
   22DG     H16  499   0.887   4.973  -0.363 -2.6053  0.4673 -0.6927
   22DG     C17  500   0.610   5.018  -0.011  0.2403  0.5255 -0.1733
   22DG     C18  501   0.765   5.017  -0.202  0.8865 -0.6136 -0.1511
   22DG     O19  502   0.699   4.947  -0.096 -0.0891 -0.0218 -0.3426
   22DG     H20  503   0.662   5.104   0.031 -0.8004  1.4272 -0.6782
   22DG     H21  504   0.531   5.061  -0.073 -0.7629 -0.6208  0.2676
   22DG     H22  505   0.815   5.101  -0.153 -0.7968  0.4550 -0.1763
   22DG     H23  506   0.680   5.057  -0.259 -1.1897 -0.1357  3.0019
   23DG      C1  507   5.378   0.592   3.348  0.5069  0.2913 -0.5931
   23DG      C2  508   5.062   0.061   3.563  0.1817  0.4980  0.4732
   23DG      H3  509   5.275   0.619   3.325 -0.8813 -2.1798  2.0373
   23DG      H4  510   5.428   0.555   3.258  0.6764  0.0056 -0.3829
   23DG      H5  511   5.433   0.679   3.382  1.3360 -0.7818  0.9310
   23DG      H6  512   5.033  -0.006   3.644 -0.0523 -1.8381 -1.4505
   23DG      H7  513   4.983   0.135   3.555  1.8168  2.2095 -0.9278
   23DG      H8  514   5.068   0.011   3.467  0.2909  0.2088  0.6298
   23DG      O9  515   5.380   0.492   3.453  0.7711 -0.4827  0.0365
   23DG     O10  516   5.177   0.137   3.590 -0.0069  0.0250 -0.2569
   23DG     C11  517   5.508   0.456   3.483 -0.0604  0.4265  0.4859
   23DG     C12  518   5.294   0.063   3.632 -0.3334 -0.4651  1.2666
   23DG     H13  519   5.571   0.543   3.500  0.6016  0.0898 -0.1521
   23DG     H14  520   5.539   0.411   3.389  0.0244 -0.2027  0.8076
   23DG     H15  521   5.326  -0.001   3.550  0.4207  1.0998  0.2863
   23DG     H16  522   5.271  -0.003   3.715 -1.1790 -2.4529 -0.4476
   23DG     C17  523   5.514   0.348   3.595 -0.2428  0.1324  0.7496
   23DG     C18  524   5.402   0.158   3.668  0.6584  0.3101  0.2816
   23DG     O19  525   5.405   0.257   3.568  0.3043 -0.2021 -0.1847
   23DG     H20  526   5.493   0.393   3.692 -0.3003 -2.3604  1.9646
   23DG     H21  527   5.609   0.296   3.607 -0.5985 -0.6085  0.4184
   23DG     H22  528   5.390   0.199   3.768 -3.2323  0.4948 -0.0760
   23DG     H23  529   5.497   0.105   3.665 -0.4340 -1.7730  0.5035
   24DG      C1  530   1.919   0.081   5.359  0.8005  0.3859 -0.2252
   24DG      C2  531   1.528   0.181   5.475 -0.3606 -0.1196 -0.7081
   24DG      H3  532   1.957   0.171   5.408 -0.2467  0.1199  1.1345
   24DG      H4  533   1.853   0.113   5.279 -1.5160 -1.8500  0.6751
   24DG      H5  534   2.006   0.029   5.317  0.1581 -1.4273  0.5850
   24DG      H6  535   1.611   0.141   5.417 -1.4167  0.2875 -2.5709
   24DG      H7  536   1.467   0.230   5.399  1.1807  1.2784 -1.1255
   24DG      H8  537   1.570   0.259   5.540 -0.1766 -0.3110 -0.5954
   24DG      O9  538   1.853  -0.005   5.453  0.3356 -0.1375 -0.2380
   24DG     O10  539   1.465   0.081   5.554 -0.0918 -0.2497 -0.0820
   24DG     C11  540   1.828  -0.125   5.381  0.1603  0.3357 -0.7843
   24DG     C12  541   1.404  -0.015   5.477 -0.1450  0.2848 -0.1771
   24DG     H13  542   1.923  -0.176   5.368  0.5277  1.0008 -0.7462
   24DG     H14  543   1.795  -0.096   5.281 -0.1955  1.9968 -0.2117
   24DG     H15  544   1.341   0.032   5.401 -2.4827  0.6307  1.8202
   24DG     H16  545   1.343  -0.083   5.537  0.0629  0.1192 -0.1520
   24DG     C17  546   1.723  -0.216   5.453  0.7182  0.4879 -0.4051
   24DG     C18  547   1.510  -0.110   5.422  0.5976 -0.3658  1.0178
   24DG     O19  548   1.613  -0.142   5.515 -0.7988  0.6078  0.6898
   24DG     H20  549   1.778  -0.278   5.524  1.4961  0.6467 -0.8527
   24DG     H21  550   1.683  -0.293   5.387 -0.1153  0.9094 -0.4006
   24DG     H22  551   1.472  -0.207   5.390  1.7132 -1.1782  2.0602
   24DG     H23  552   1.544  -0.052   5.336  0.0376 -0.1732  0.9174
   25DG      C1  553   0.835   4.830   1.222 -0.4510  0.0415  0.9228
   25DG      C2  554   0.506   5.426   1.124  0.7059 -0.0146 -0.4504
   25DG      H3  555   0.901   4.755   1.178 -3.4663 -0.9873 -2.2271
   25DG      H4  556   0.736   4.793   1.248 -0.3037 -3.3696 -2.4519
   25DG      H5  557   0.895   4.879   1.299  0.9359  0.4821 -0.4009
   25DG      H6  558   0.408   5.380   1.124  0.9189 -0.4836 -0.7502
   25DG      H7  559   0.543   5.429   1.227 -2.2634  0.6179  0.6873
   25DG      H8  560   0.498   5.528   1.087  0.5751  0.5540  1.0702
   25DG      O9  561   0.819   4.919   1.116 -0.0266 -0.0368  0.2674
   25DG     O10  562   0.586   5.352   1.035 -0.4855  0.6214 -0.4660
   25DG     C11  563   0.940   4.972   1.053  0.0321  0.2718 -0.7263
   25DG     C12  564   0.717   5.403   1.021  0.1979 -0.2176 -0.0158
   25DG     H13  565   0.987   4.887   1.006 -2.4371 -0.6795 -1.6272
   25DG     H14  566   1.006   5.009   1.132 -0.8185 -1.1099  0.6969
   25DG     H15  567   0.763   5.416   1.119 -2.0268  0.5254  0.9816
   25DG     H16  568   0.717   5.501   0.975  0.0906  0.9589  2.3469
   25DG     C17  569   0.901   5.090   0.960 -0.5036 -0.0268  0.9399
   25DG     C18  570   0.803   5.300   0.943  0.4074 -1.1946 -0.3600
   25DG     O19  571   0.817   5.183   1.020  1.0232  0.5626  0.4360
   25DG     H20  572   0.856   5.060   0.865  0.8550 -0.7456  0.4986
   25DG     H21  573   0.991   5.142   0.928  0.9293 -2.5870  0.4747
   25DG     H22  574   0.749   5.289   0.849 -0.5599  1.1506 -0.1461
   25DG     H23  575   0.903   5.335   0.917  0.2469 -0.7844 -0.4277
   26DG      C1  576   0.007   3.462   2.410 -0.4654  0.0130  0.8859
   26DG      C2  577   0.227   3.867   1.915 -0.1777  0.0034 -0.5039
   26DG      H3  578  -0.072   3.470   2.335 -0.7573 -1.4346  1.0123
   26DG      H4  579   0.006   3.547   2.479  0.3741  0.6001  0.2000
   26DG      H5  580  -0.011   3.368   2.461  0.4482 -1.2252 -0.9710
   26DG      H6  581   0.218   3.838   1.810 -2.4927  2.6516 -1.1384
   26DG      H7  582   0.133   3.921   1.921  0.8516  2.2744 -2.9419
   26DG      H8  583   0.302   3.946   1.923 -1.1684  1.2711 -2.8375
   26DG      O9  584   0.130   3.466   2.340 -0.2026 -0.7382 -0.5677
   26DG     O10  585   0.249   3.755   2.002 -0.4872  0.2637 -0.1787
   26DG     C11  586   0.154   3.350   2.262 -0.1017  0.6434 -0.1531
   26DG     C12  587   0.327   3.657   1.937 -0.3040  0.0729  0.0055
   26DG     H13  588   0.063   3.331   2.206  0.1408  0.2523 -0.4191
   26DG     H14  589   0.160   3.260   2.323 -2.6141 -0.2192 -1.0348
   26DG     H15  590   0.414   3.707   1.895 -0.1751  0.0367  0.2292
   26DG     H16  591   0.282   3.612   1.848 -0.6615  0.5200 -0.0451
   26DG     C17  592   0.281   3.375   2.174 -0.5821  0.3934 -0.2437
   26DG     C18  593   0.371   3.541   2.036  0.2673 -0.1464 -0.1708
   26DG     O19  594   0.252   3.500   2.109  0.4315  0.4442  0.1521
   26DG     H20  595   0.303   3.296   2.102 -2.7233  0.2391 -0.7942
   26DG     H21  596   0.365   3.379   2.244 -1.0127  1.2623  0.2425
   26DG     H22  597   0.411   3.459   1.976  0.7585 -0.1423  0.1473
   26DG     H23  598   0.446   3.578   2.105 -0.2779 -0.8526  0.8316
   27DG      C1  599   0.106   2.370   0.979  1.2133  0.0785  0.2701
   27DG      C2  600  -0.550   2.358   1.143 -0.1123  0.6803  0.4834
   27DG      H3  601   0.110   2.366   1.087  3.2403  2.0683  0.3595
   27DG      H4  602   0.172   2.455   0.960  0.5357  0.8649  1.3433
   27DG      H5  603   0.151   2.282   0.932 -0.9214  0.2644 -2.3862
   27DG      H6  604  -0.512   2.330   1.241  0.1261 -0.4173  0.0908
   27DG      H7  605  -0.578   2.461   1.122  0.4464  0.4270 -1.7748
   27DG      H8  606  -0.644   2.304   1.129  0.0431  0.3404  0.7320
   27DG      O9  607  -0.028   2.395   0.931  0.2484 -0.2234  0.5862
   27DG     O10  608  -0.466   2.317   1.038 -0.0506  0.0156  0.0740
   27DG     C11  609  -0.039   2.385   0.785 -0.8017  0.2172 -0.5311
   27DG     C12  610  -0.508   2.328   0.906  0.2332 -0.4586 -0.2186
   27DG     H13  611  -0.014   2.283   0.757  0.8894  0.4154  0.1375
   27DG     H14  612   0.027   2.451   0.730  0.5458 -0.9739 -0.4041
   27DG     H15  613  -0.611   2.363   0.897 -0.0866 -1.8642 -4.1999
   27DG     H16  614  -0.516   2.227   0.864  1.5252 -0.8748  0.5046
   27DG     C17  615  -0.182   2.420   0.749 -0.0076 -0.0150 -0.0590
   27DG     C18  616  -0.408   2.407   0.815  0.3443 -0.0535  0.8067
   27DG     O19  617  -0.273   2.364   0.841 -0.1247 -0.7379 -0.3965
   27DG     H20  618  -0.200   2.384   0.648 -1.3961 -0.7710  0.4334
   27DG     H21  619  -0.195   2.528   0.761  2.5404  0.3039  0.2844
   27DG     H22  620  -0.435   2.382   0.712  1.3121  0.2988  0.4619
   27DG     H23  621  -0.413   2.515   0.827 -0.9960  0.4596 -3.0290
   28DG      C1  622   4.441   2.504   4.000 -0.8610  0.7464 -0.0555
   28DG      C2  623   3.913   2.356   3.706  0.0705 -0.1034  0.2552
   28DG      H3  624   4.522   2.472   4.065 -0.0994 -0.4924 -1.5297
   28DG      H4  625   4.363   2.551   4.059 -0.5474 -1.4189  2.2637
   28DG      H5  626   4.491   2.558   3.919  3.3353 -0.7496  1.2577
   28DG      H6  627   3.849   2.303   3.636 -0.4809  1.8894 -0.8348
   28DG      H7  628   3.908   2.462   3.679  1.3116  0.4913  2.1074
   28DG      H8  629   4.017   2.324   3.693 -0.3865 -1.7180  0.4281
   28DG      O9  630   4.394   2.380   3.945  0.0160 -0.1363  0.1268
   28DG     O10  631   3.870   2.334   3.838 -0.4845 -0.3431  0.1093
   28DG     C11  632   4.343   2.292   4.044  1.2175 -0.7127  0.2041
   28DG     C12  633   3.882   2.195   3.864  0.6121  0.0799 -0.7885
   28DG     H13  634   4.296   2.348   4.124  0.3564  1.0068 -1.4109
   28DG     H14  635   4.424   2.228   4.077  2.0848 -0.2227 -0.9110
   28DG     H15  636   3.837   2.144   3.778  0.4807  2.3100 -2.1218
   28DG     H16  637   3.816   2.171   3.947 -0.1246  0.3766 -1.2759
   28DG     C17  638   4.231   2.201   3.986 -0.0904 -0.1728  0.2454
   28DG     C18  639   4.028   2.153   3.881  0.4863  0.3993 -0.0469
   28DG     O19  640   4.108   2.254   3.940  0.1073 -0.4748  0.4209
   28DG     H20  641   4.205   2.134   4.068 -0.8299  0.9730  0.9575
   28DG     H21  642   4.273   2.143   3.903  2.4162  0.1182  1.2043
   28DG     H22  643   4.026   2.063   3.943 -0.1000  0.8037  0.5348
   28DG     H23  644   4.071   2.120   3.787  2.6827 -2.6585  1.8127
   29DG      C1  645   2.300   5.388   0.171  0.3406  0.2186 -0.0170
   29DG      C2  646   2.940   5.307   0.195 -0.3854  0.5673  0.6338
   29DG      H3  647   2.245   5.455   0.106  1.4591  0.5560 -0.6423
   29DG      H4  648   2.329   5.437   0.264  0.5000 -1.1546  0.6789
   29DG      H5  649   2.235   5.308   0.207  1.2424 -0.8445 -0.6790
   29DG      H6  650   2.937   5.415   0.213 -0.9920  1.0475 -1.9675
   29DG      H7  651   2.916   5.259   0.290 -0.0590  0.5371  0.6995
   29DG      H8  652   3.036   5.273   0.158  0.3512  0.2051  2.7231
   29DG      O9  653   2.401   5.324   0.098 -0.1179  0.8160  0.3974
   29DG     O10  654   2.839   5.280   0.099  0.0669  0.2884 -0.3250
   29DG     C11  655   2.355   5.235  -0.001 -0.1980  0.0326 -0.0693
   29DG     C12  656   2.841   5.143   0.052  0.2625 -0.2277  0.4790
   29DG     H13  657   2.291   5.281  -0.076  0.2815  0.7919 -0.0296
   29DG     H14  658   2.316   5.141   0.039  1.0927 -0.4781  0.0254
   29DG     H15  659   2.831   5.078   0.140  0.2091  1.6552  1.9330
   29DG     H16  660   2.936   5.125   0.003 -0.2840  0.2796 -0.8036
   29DG     C17  661   2.489   5.191  -0.065  0.5455  0.4708 -0.1106
   29DG     C18  662   2.718   5.130  -0.043 -0.0809 -1.0135 -0.2537
   29DG     O19  663   2.603   5.173   0.020  0.2826  0.0002  0.1721
   29DG     H20  664   2.528   5.273  -0.125 -0.1678  0.8425 -0.0814
   29DG     H21  665   2.474   5.110  -0.137 -0.9765  0.4708  0.1664
   29DG     H22  666   2.735   5.200  -0.125  1.6252 -0.9732  0.0865
   29DG     H23  667   2.709   5.027  -0.076  2.2222 -1.7581  1.1490
   30DG      C1  668   3.865   3.560   0.458  0.0563 -0.2400  0.1141
   30DG      C2  669   3.164   3.408   0.245 -0.3252  0.3140  0.7850
   30DG      H3  670   3.899   3.646   0.516  2.5858 -1.2127  0.2149
   30DG      H4  671   3.932   3.528   0.378 -0.7925  1.8731 -1.5180
   30DG      H5  672   3.859   3.479   0.531 -0.8897  0.0247  0.3366
   30DG      H6  673   3.169   3.373   0.142 -0.9820  1.4608  0.3436
   30DG      H7  674   3.184   3.320   0.306 -0.9762 -1.5732 -1.5583
   30DG      H8  675   3.063   3.448   0.258 -1.0769 -1.2580 -0.0082
   30DG      O9  676   3.735   3.581   0.403 -0.3946 -0.1436 -0.1961
   30DG     O10  677   3.266   3.505   0.265 -0.2019 -0.0586 -0.4349
   30DG     C11  678   3.751   3.671   0.286  0.1843  0.9772 -0.4459
   30DG     C12  679   3.264   3.617   0.177  0.0656  0.0072 -0.4526
   30DG     H13  680   3.792   3.605   0.209  1.1830  3.3270 -2.0664
   30DG     H14  681   3.825   3.750   0.297  0.6689  0.3280  1.1591
   30DG     H15  682   3.165   3.663   0.180  0.3599  0.6109  0.2667
   30DG     H16  683   3.288   3.590   0.074  1.5245  0.4877 -0.2584
   30DG     C17  684   3.615   3.734   0.259 -0.0531 -0.0216 -0.4846
   30DG     C18  685   3.377   3.714   0.214 -0.5086 -0.6095 -0.4678
   30DG     O19  686   3.504   3.646   0.215 -0.0573  0.5918 -0.2616
   30DG     H20  687   3.630   3.809   0.181 -1.5993 -0.5697 -1.3489
   30DG     H21  688   3.585   3.802   0.339  1.8882 -2.4579  2.5546
   30DG     H22  689   3.381   3.784   0.130  0.1481  0.8641  0.7503
   30DG     H23  690   3.357   3.761   0.310 -0.5586  0.1141 -0.8264
   31DG      C1  691   1.902   1.297   3.327 -0.6070 -0.3425  0.4115
   31DG      C2  692   2.052   1.076   3.984  0.2860 -0.3329 -0.0853
   31DG      H3  693   1.824   1.306   3.251 -0.4177 -0.1916  0.2310
   31DG      H4  694   1.963   1.211   3.302 -1.2392 -0.2320 -1.7006
   31DG      H5  695   1.967   1.381   3.303 -0.7930 -0.9728 -2.7333
   31DG      H6  696   2.148   1.103   3.939 -0.8041 -0.7227 -2.7927
   31DG      H7  697   2.046   1.127   4.081  0.1238 -1.3589  0.4631
   31DG      H8  698   2.060   0.968   3.995  0.5227 -0.4172 -1.0431
   31DG      O9  699   1.841   1.281   3.449  0.1394  0.1351 -0.0531
   31DG     O10  700   1.963   1.132   3.889 -0.7485 -0.4363  0.3525
   31DG     C11  701   1.757   1.167   3.445  0.4519  0.1042 -1.0560
   31DG     C12  702   1.825   1.103   3.921 -0.1605 -0.3792  0.0867
   31DG     H13  703   1.823   1.082   3.428  1.3713  0.7797 -0.9485
   31DG     H14  704   1.676   1.171   3.372 -0.9759 -0.5880  0.4275
   31DG     H15  705   1.796   1.139   4.020  0.3844  1.7810 -0.4676
   31DG     H16  706   1.806   0.996   3.918  1.6369 -0.7198 -1.9769
   31DG     C17  707   1.682   1.150   3.585  0.1657 -0.2447 -0.1815
   31DG     C18  708   1.725   1.155   3.813  0.5851 -0.3511  0.0942
   31DG     O19  709   1.783   1.136   3.685 -0.1322  0.4336 -0.4589
   31DG     H20  710   1.628   1.056   3.581  0.6953 -0.5459 -0.3364
   31DG     H21  711   1.607   1.229   3.589 -1.5344 -1.8274  0.0001
   31DG     H22  712   1.626   1.112   3.823 -0.3836  1.5958 -0.6306
   31DG     H23  713   1.718   1.264   3.820  1.9681  0.1114 -3.7466
   32DG      C1  714   0.560   0.550   1.605  0.1755  0.0279  0.5823
   32DG      C2  715   0.596   0.369   0.949 -0.6583 -0.7519  0.0782
   32DG      H3  716   0.576   0.448   1.640 -4.2990 -1.0556  0.0318
   32DG      H4  717   0.524   0.620   1.680 -1.0786  1.3299 -1.1446
   32DG      H5  718   0.656   0.590   1.572  0.1753 -1.3527 -1.2157
   32DG      H6  719   0.596   0.260   0.948 -3.2829 -0.8321  0.5110
   32DG      H7  720   0.554   0.400   0.853 -0.6737  0.1077  0.3519
   32DG      H8  721   0.700   0.398   0.963 -0.8800 -0.0302  0.2793
   32DG      O9  722   0.465   0.545   1.493 -1.1710 -0.5130  0.2073
   32DG     O10  723   0.515   0.423   1.053 -0.2780 -0.2794  0.4232
   32DG     C11  724   0.339   0.487   1.529 -0.3094 -0.2427  0.0714
   32DG     C12  725   0.391   0.366   1.051 -0.0608 -0.4919 -0.1949
   32DG     H13  726   0.284   0.543   1.605 -2.0058  0.8246 -1.8477
   32DG     H14  727   0.350   0.383   1.562  1.4225 -0.2905 -0.5542
   32DG     H15  728   0.382   0.258   1.063  0.8502 -0.9141 -2.7291
   32DG     H16  729   0.346   0.398   0.957 -2.1775 -0.1301  0.8912
   32DG     C17  730   0.264   0.475   1.394  0.8523 -0.6542 -0.3242
   32DG     C18  731   0.308   0.440   1.154  0.8754  0.5493  0.7796
   32DG     O19  732   0.352   0.431   1.289 -0.1406 -0.1120  0.1266
   32DG     H20  733   0.221   0.569   1.357  0.9568 -0.9594 -1.2357
   32DG     H21  734   0.181   0.406   1.408  0.3198 -0.4711 -2.2793
   32DG     H22  735   0.300   0.545   1.127  0.5590 -0.3060 -3.0528
   32DG     H23  736   0.209   0.398   1.135  1.1807  0.6992 -1.4519
   33DG      C1  737   0.613   0.762   3.163  0.1824  0.7240 -0.5959
   33DG      C2  738   0.835   1.455   2.989  0.2804  0.4793 -0.1126
   33DG      H3  739   0.543   0.776   3.081 -0.3565  1.2261 -0.0645
   33DG      H4  740   0.580   0.690   3.237  1.0395 -1.5748 -2.3562
   33DG      H5  741   0.700   0.713   3.119  1.4844  1.1016  1.3813
   33DG      H6  742   0.913   1.395   2.942 -0.4227 -1.1637  0.7412
   33DG      H7  743   0.784   1.500   2.904 -1.5259  0.9587  1.1772
   33DG      H8  744   0.894   1.530   3.041  1.1305 -0.5724  0.4856
   33DG      O9  745   0.658   0.884   3.215 -0.1389  0.4522  0.1022
   33DG     O10  746   0.747   1.379   3.074  0.0406 -0.2346 -0.4892
   33DG     C11  747   0.551   0.957   3.266 -0.3292 -0.2777  0.0472
   33DG     C12  748   0.792   1.373   3.211  0.2092  0.3684  0.0152
   33DG     H13  749   0.497   0.897   3.338  0.2539 -0.5620  0.2491
   33DG     H14  750   0.480   0.986   3.188 -0.2965 -2.1603 -0.7319
   33DG     H15  751   0.818   1.474   3.244  0.9139 -0.2908  1.5226
   33DG     H16  752   0.884   1.315   3.200  0.5776  1.1831 -1.6844
   33DG     C17  753   0.601   1.090   3.338 -0.2597 -0.0828  0.9208
   33DG     C18  754   0.692   1.299   3.294  0.2881  0.1495  0.0647
   33DG     O19  755   0.669   1.166   3.247 -0.4959  0.0324  0.4542
   33DG     H20  756   0.680   1.067   3.409  1.7377  1.1834 -0.7821
   33DG     H21  757   0.526   1.150   3.390  0.7191  1.1474  0.9538
   33DG     H22  758   0.737   1.303   3.393 -0.2171 -1.2034  0.3698
   33DG     H23  759   0.598   1.352   3.309  0.1025  0.1087 -0.8841
   34DG      C1  760   0.939   5.486   4.006  0.3470  0.2415 -0.2342
   34DG      C2  761   0.869   6.209   3.834  0.6495  0.0450  0.0514
   34DG      H3  762   1.020   5.511   3.938 -0.5770  0.6924 -1.1929
   34DG      H4  763   0.893   5.408   3.945  2.0307 -0.4445 -0.6807
   34DG      H5  764   0.980   5.445   4.098  1.4811  1.8752  0.0308
   34DG      H6  765   0.858   6.309   3.877  1.6792  0.2126 -0.0494
   34DG      H7  766   0.966   6.212   3.785  0.3770  0.8899 -0.4636
   34DG      H8  767   0.793   6.193   3.758  0.9363 -0.8177 -0.0586
   34DG      O9  768   0.863   5.606   4.011 -0.6955  0.4032 -0.4650
   34DG     O10  769   0.858   6.105   3.929 -0.6432 -0.3705  0.1180
   34DG     C11  770   0.931   5.690   4.103  0.1470  0.1629 -0.9918
   34DG     C12  771   0.729   6.085   3.986 -0.2008  1.0189  0.4905
   34DG     H13  772   1.039   5.676   4.110 -0.0811 -1.4997 -0.2979
   34DG     H14  773   0.883   5.682   4.201 -1.6741  2.5360 -1.5948
   34DG     H15  774   0.654   6.052   3.914  0.2548 -0.0271  0.4841
   34DG     H16  775   0.699   6.182   4.025 -1.0944  0.8392  0.2891
   34DG     C17  776   0.896   5.828   4.055 -0.4865 -0.0578  0.0119
   34DG     C18  777   0.727   5.988   4.110  0.3756  0.1049  0.2675
   34DG     O19  778   0.759   5.858   4.087  0.1097  0.0302  0.3334
   34DG     H20  779   0.933   5.841   3.953  0.4572 -1.5211  0.1476
   34DG     H21  780   0.957   5.895   4.116  0.3374  0.4230 -1.3079
   34DG     H22  781   0.779   6.026   4.197 -0.0493 -2.2050  1.6024
   34DG     H23  782   0.626   5.972   4.149 -0.5123 -0.0291 -1.9072
   35DG      C1  783   3.274   1.577   4.073  0.1003  0.1111 -0.5834
   35DG      C2  784   2.903   0.932   4.488  0.2035  0.2029 -0.1352
   35DG      H3  785   3.285   1.641   4.161 -1.6803  1.4555 -1.2781
   35DG      H4  786   3.289   1.631   3.979 -2.1690  1.0478 -0.4581
   35DG      H5  787   3.356   1.507   4.088  1.2929  1.2837 -1.4002
   35DG      H6  788   2.803   0.901   4.516  0.1204  0.3266 -0.2906
   35DG      H7  789   2.946   0.850   4.430 -0.0861  0.5401 -0.8338
   35DG      H8  790   2.966   0.944   4.576  1.0183 -1.8534 -0.3730
   35DG      O9  791   3.158   1.501   4.059 -0.9443 -0.3350  0.2822
   35DG     O10  792   2.908   1.049   4.409  0.1441 -0.2649  0.4363
   35DG     C11  793   3.137   1.411   4.168 -0.1157 -0.3571 -0.2767
   35DG     C12  794   2.867   1.029   4.276  0.8774  0.0807 -0.2080
   35DG     H13  795   3.121   1.459   4.264  1.3284  0.0032 -0.1903
   35DG     H14  796   3.224   1.347   4.185  1.1943  1.1310 -1.1135
   35DG     H15  797   2.763   0.999   4.282  1.6048 -2.3739  1.4205
   35DG     H16  798   2.931   0.959   4.221  1.5215  0.8686 -0.4859
   35DG     C17  799   3.013   1.341   4.121  1.2881  0.5401 -0.5684
   35DG     C18  800   2.875   1.160   4.195  0.1906 -0.4034 -0.4273
   35DG     O19  801   2.999   1.222   4.202  0.3890 -0.6640  0.3254
   35DG     H20  802   3.026   1.307   4.019  0.6215 -0.2401 -0.4007
   35DG     H21  803   2.930   1.408   4.141  1.7902  0.4816  2.0931
   35DG     H22  804   2.855   1.150   4.088 -1.1294  2.7032 -0.6031
   35DG     H23  805   2.801   1.236   4.221  1.2091  0.4705 -0.0131
   36DG      C1  806   0.115   1.617   3.195 -0.3680 -0.3813 -0.3713
   36DG      C2  807  -0.323   1.308   2.829  0.5150 -0.2791  0.3419
   36DG      H3  808   0.211   1.665   3.214 -1.5922  1.7425  0.8143
   36DG      H4  809   0.080   1.544   3.268  3.7385 -0.5143  1.7476
   36DG      H5  810   0.045   1.700   3.186  1.1904  0.8728 -1.4884
   36DG      H6  811  -0.351   1.269   2.731  1.7100  0.3188 -0.2571
   36DG      H7  812  -0.344   1.229   2.902 -0.7821 -0.2920 -0.0103
   36DG      H8  813  -0.401   1.383   2.839  0.9095  0.2371 -0.3640
   36DG      O9  814   0.130   1.550   3.073 -0.3863  0.3312  0.2217
   36DG     O10  815  -0.193   1.367   2.826  0.0062  0.3331  0.2512
   36DG     C11  816   0.192   1.623   2.966 -0.5133  0.1868  0.2564
   36DG     C12  817  -0.184   1.485   2.739 -0.1551  0.0429 -0.2355
   36DG     H13  818   0.298   1.633   2.989 -0.8932  2.3284  1.2761
   36DG     H14  819   0.153   1.724   2.970  1.0447  0.7839  1.5268
   36DG     H15  820  -0.235   1.566   2.791 -0.0941 -0.2184  0.2368
   36DG     H16  821  -0.241   1.472   2.647 -0.9205 -1.5559  0.4378
   36DG     C17  822   0.155   1.562   2.827 -0.4078 -0.9010 -1.3326
   36DG     C18  823  -0.045   1.520   2.705 -0.7977 -0.8280  0.1008
   36DG     O19  824   0.014   1.533   2.828  0.8639  0.0868 -0.3276
   36DG     H20  825   0.213   1.471   2.809  3.2387  0.7614  0.8579
   36DG     H21  826   0.182   1.634   2.750  1.0775 -0.3716 -0.3563
   36DG     H22  827  -0.002   1.441   2.643 -0.0618 -0.6355  0.3606
   36DG     H23  828  -0.039   1.617   2.656 -0.7652 -0.2438  1.2238
   37DG      C1  829   1.070   1.854   3.021  0.5859  0.2960 -0.6542
   37DG      C2  830   1.566   2.289   2.867 -0.4485 -0.2281  0.4583
   37DG      H3  831   1.116   1.807   2.933 -1.6403 -0.6838 -1.3789
   37DG      H4  832   0.982   1.916   3.006  0.0407  0.3045  2.1197
   37DG      H5  833   1.045   1.771   3.087  2.6244  0.2656  0.1270
   37DG      H6  834   1.672   2.313   2.879 -0.1233  0.5048 -2.9298
   37DG      H7  835   1.564   2.220   2.782  1.3042 -1.8947  1.6640
   37DG      H8  836   1.517   2.384   2.847 -1.3955 -0.9052 -0.5298
   37DG      O9  837   1.167   1.940   3.081 -0.8522  0.1643  0.2689
   37DG     O10  838   1.518   2.222   2.981  0.2777  0.0163  0.2413
   37DG     C11  839   1.130   2.020   3.196  0.3535 -0.7844 -0.2772
   37DG     C12  840   1.536   2.293   3.104 -0.3131  0.4589 -0.1817
   37DG     H13  841   1.067   1.956   3.258  0.9504  0.5237  1.7664
   37DG     H14  842   1.066   2.099   3.157  0.4574  0.1722  1.3772
   37DG     H15  843   1.513   2.399   3.091  0.1723  0.3395 -2.3750
   37DG     H16  844   1.640   2.284   3.134  0.1657  1.0525 -1.5786
   37DG     C17  845   1.256   2.084   3.266  0.5591  0.3072 -0.3662
   37DG     C18  846   1.456   2.224   3.221  0.4965 -0.0902  0.4360
   37DG     O19  847   1.321   2.173   3.175 -0.1408  0.4569 -0.6436
   37DG     H20  848   1.329   2.010   3.296 -0.5875  0.0436  2.0106
   37DG     H21  849   1.229   2.138   3.357  1.1398 -0.2551  0.1496
   37DG     H22  850   1.519   2.143   3.257  2.1378  0.8340 -0.2801
   37DG     H23  851   1.447   2.298   3.301 -3.0515  2.2535 -1.8139
   38DG      C1  852   2.940   3.988   0.969 -0.0189 -0.3955 -0.0756
   38DG      C2  853   3.062   4.515   0.571  0.2718 -0.4172 -0.7040
   38DG      H3  854   2.853   3.948   1.021 -0.4078 -0.5681 -0.8319
   38DG      H4  855   3.037   3.985   1.017  0.4690  1.9062 -0.7773
   38DG      H5  856   2.941   3.948   0.867 -1.6115  3.7218 -1.9583
   38DG      H6  857   3.166   4.483   0.568  0.3882 -0.2113  0.7367
   38DG      H7  858   2.999   4.454   0.505  1.4033 -0.9079 -1.3528
   38DG      H8  859   3.055   4.616   0.533 -0.9820  0.2440  1.1280
   38DG      O9  860   2.918   4.127   0.946  0.4887 -0.3239 -0.6068
   38DG     O10  861   3.024   4.490   0.705 -0.0242 -1.3639  0.2315
   38DG     C11  862   2.781   4.155   0.919  0.2799 -0.9865  0.6189
   38DG     C12  863   2.889   4.535   0.732 -0.2194 -0.0436 -0.9927
   38DG     H13  864   2.701   4.108   0.977 -1.1872 -0.2795 -0.7576
   38DG     H14  865   2.766   4.127   0.815  0.0650  0.6476  0.1833
   38DG     H15  866   2.811   4.482   0.676 -0.8092  0.3252 -0.5344
   38DG     H16  867   2.870   4.638   0.703 -0.1628  0.5180  0.8608
   38DG     C17  868   2.758   4.310   0.927 -0.4845 -0.3363  0.5590
   38DG     C18  869   2.865   4.515   0.884  0.0450 -0.1994 -0.0185
   38DG     O19  870   2.877   4.379   0.918 -0.3178  0.0200 -0.1514
   38DG     H20  871   2.712   4.340   1.021  0.6615 -1.2586  1.4472
   38DG     H21  872   2.687   4.333   0.847 -1.2917 -0.3617  1.2521
   38DG     H22  873   2.943   4.568   0.939 -1.1384 -0.7826  2.3368
   38DG     H23  874   2.771   4.557   0.918 -0.7848 -2.5191  0.7862
   39DG      C1  875   5.447   1.701   0.323 -0.2131  0.4831 -0.5223
   39DG      C2  876   5.659   1.862   0.883 -0.4010  0.1984 -1.2208
   39DG      H3  877   5.494   1.629   0.256 -0.3972 -0.2312  0.1122
   39DG      H4  878   5.475   1.803   0.294 -0.9989  1.0065  0.5006
   39DG      H5  879   5.339   1.697   0.306 -0.7892  0.6284  2.6141
   39DG      H6  880   5.701   1.841   0.981  1.1055  0.6978 -1.7348
   39DG      H7  881   5.682   1.775   0.821 -1.4268 -1.5629  0.7280
   39DG      H8  882   5.717   1.946   0.845  0.4874  0.9320  1.5753
   39DG      O9  883   5.480   1.677   0.457  0.4966 -0.2826 -0.7240
   39DG     O10  884   5.517   1.891   0.895  0.3528  0.0128  0.6687
   39DG     C11  885   5.418   1.559   0.504  0.0816  0.1761 -0.3661
   39DG     C12  886   5.440   1.788   0.953  0.5332  0.5934  0.1421
   39DG     H13  887   5.474   1.478   0.457 -0.1807 -1.3711  1.8342
   39DG     H14  888   5.316   1.550   0.466  0.0235 -0.6888 -0.0400
   39DG     H15  889   5.344   1.831   0.981  1.5377  2.2653  1.1901
   39DG     H16  890   5.480   1.752   1.048 -0.4951  0.6869  0.6259
   39DG     C17  891   5.434   1.553   0.655 -0.2142 -0.2698 -0.2563
   39DG     C18  892   5.431   1.662   0.864 -0.1757  0.7710 -0.4329
   39DG     O19  893   5.429   1.676   0.725  0.0897 -0.0132  0.1968
   39DG     H20  894   5.525   1.498   0.676 -0.6058 -1.1762 -0.8606
   39DG     H21  895   5.362   1.484   0.698 -0.3309 -0.4998 -0.8174
   39DG     H22  896   5.522   1.608   0.892 -0.6702  0.9879  1.8268
   39DG     H23  897   5.349   1.607   0.911  0.4001 -0.8842 -1.2757
   40DG      C1  898   3.474   4.675   3.104 -1.1272  0.4437  0.2888
   40DG      C2  899   3.033   4.807   2.836 -0.1011 -0.4280  0.0952
   40DG      H3  900   3.578   4.644   3.091 -1.1724  0.5767 -0.4144
   40DG      H4  901   3.428   4.580   3.131 -1.6311  0.7346  0.4717
   40DG      H5  902   3.466   4.756   3.177 -0.0241  1.3668 -0.5751
   40DG      H6  903   2.954   4.855   2.895 -0.7572 -1.7501  0.3380
   40DG      H7  904   3.021   4.699   2.833  0.2596 -0.6245  2.7670
   40DG      H8  905   3.123   4.823   2.896  0.0288  0.2133 -0.2555
   40DG      O9  906   3.405   4.708   2.984  0.2987  0.6842  0.3798
   40DG     O10  907   3.046   4.876   2.714  0.0491 -0.1305  0.4622
   40DG     C11  908   3.432   4.616   2.877 -0.5190 -0.0946  0.7458
   40DG     C12  909   3.110   4.820   2.598  0.2081 -0.3852  0.0085
   40DG     H13  910   3.362   4.532   2.878  0.6013 -1.1234 -1.3375
   40DG     H14  911   3.526   4.566   2.898 -0.4547 -0.6623 -0.7950
   40DG     H15  912   3.086   4.881   2.511 -1.3163  0.7809  1.1952
   40DG     H16  913   3.071   4.722   2.571 -2.7666  1.1012 -1.5578
   40DG     C17  914   3.417   4.686   2.742  0.6522 -0.6825  0.0187
   40DG     C18  915   3.266   4.825   2.620  0.0687  0.8731 -0.6336
   40DG     O19  916   3.282   4.732   2.734 -0.1514 -0.3373 -0.1776
   40DG     H20  917   3.423   4.612   2.663  0.5032  0.1392 -0.7737
   40DG     H21  918   3.495   4.762   2.730  1.8220 -1.4186  2.2593
   40DG     H22  919   3.324   4.790   2.535 -0.0586 -2.6123  0.5608
   40DG     H23  920   3.307   4.921   2.650 -0.3708  0.4548  1.5097
   41DG      C1  921   2.183   2.786   5.251  0.6375 -0.1980  0.1397
   41DG      C2  922   1.665   2.339   5.200 -1.1213 -0.2760 -0.5563
   41DG      H3  923   2.200   2.798   5.144 -1.8313  0.0695 -0.2955
   41DG      H4  924   2.279   2.804   5.299  1.7039 -2.5658 -0.9098
   41DG      H5  925   2.105   2.861   5.267 -0.6104 -0.7136 -2.7311
   41DG      H6  926   1.605   2.408   5.259  1.1618 -0.1397  1.7521
   41DG      H7  927   1.662   2.374   5.096  2.0324 -0.0292 -0.6640
   41DG      H8  928   1.621   2.240   5.209  1.3361 -1.5230 -1.4856
   41DG      O9  929   2.150   2.657   5.286  0.5784 -0.0765  0.3859
   41DG     O10  930   1.797   2.358   5.249  0.3510  0.5315 -0.2285
   41DG     C11  931   2.166   2.635   5.424 -0.7059 -0.3579 -0.4046
   41DG     C12  932   1.807   2.328   5.384  0.3319 -0.0637 -0.5846
   41DG     H13  933   2.100   2.705   5.475 -0.8503 -0.7098 -0.0996
   41DG     H14  934   2.270   2.647   5.454 -0.2812 -1.9560 -1.1241
   41DG     H15  935   1.769   2.226   5.391  1.0530 -0.4000 -1.3741
   41DG     H16  936   1.737   2.394   5.435 -0.5609 -0.7927 -0.8205
   41DG     C17  937   2.119   2.490   5.474  0.0006 -0.1704  0.1547
   41DG     C18  938   1.949   2.338   5.440  0.3856 -0.2282  0.5086
   41DG     O19  939   1.995   2.468   5.415 -0.0978 -0.2373  0.3091
   41DG     H20  940   2.123   2.492   5.583  0.2123  0.4200  0.1415
   41DG     H21  941   2.191   2.413   5.447  1.3585  1.2220 -0.3206
   41DG     H22  942   1.954   2.298   5.541  0.5465 -1.2941  0.0990
   41DG     H23  943   2.009   2.263   5.388  0.7626 -0.1921  0.8869
   42DG      C1  944   4.359   4.904   0.805 -0.6593 -0.2682 -0.0528
   42DG      C2  945   4.354   4.509   0.065 -0.2357 -0.0064  0.3872
   42DG      H3  946   4.413   4.910   0.900 -0.2947 -2.0822 -0.1124
   42DG      H4  947   4.287   4.822   0.803 -1.7956  0.6988 -2.1791
   42DG      H5  948   4.296   4.992   0.787  1.3108  1.1969 -0.0841
   42DG      H6  949   4.290   4.595   0.048  0.1388  0.2311  0.1862
   42DG      H7  950   4.397   4.481  -0.031  0.6704  0.7076  0.5754
   42DG      H8  951   4.287   4.428   0.096  0.0041 -0.7763 -1.0271
   42DG      O9  952   4.460   4.894   0.706 -0.1907  0.4194 -0.1105
   42DG     O10  953   4.432   4.531   0.177 -0.3953 -0.4515  0.1668
   42DG     C11  954   4.429   4.820   0.595  0.5934  0.4722  0.4540
   42DG     C12  955   4.524   4.635   0.152 -0.0798  0.1756  0.5661
   42DG     H13  956   4.339   4.865   0.550 -0.5114 -0.8112  1.3152
   42DG     H14  957   4.401   4.724   0.637  1.4045  0.7736  1.7256
   42DG     H15  958   4.467   4.718   0.110 -0.5811 -1.2410 -1.6953
   42DG     H16  959   4.601   4.607   0.080  0.2794  0.3225  0.8880
   42DG     C17  960   4.543   4.795   0.485 -0.3731 -0.3774 -0.2287
   42DG     C18  961   4.591   4.680   0.287  0.2061  0.0531  0.2967
   42DG     O19  962   4.489   4.706   0.385 -0.1464  0.1608 -0.5142
   42DG     H20  963   4.632   4.754   0.532 -1.3900  0.0253  2.1916
   42DG     H21  964   4.571   4.883   0.427  1.1099 -1.4503 -1.2238
   42DG     H22  965   4.656   4.598   0.316  1.9151  1.2954  0.1442
   42DG     H23  966   4.660   4.761   0.262  0.4625 -0.9476 -2.5156
   43DG      C1  967   0.565   2.771   1.352 -0.2335 -0.0565 -0.0641
   43DG      C2  968   0.344   2.150   1.170 -0.0129 -0.7213  0.3763
   43DG      H3  969   0.564   2.801   1.247  2.0482 -4.1903 -1.4731
   43DG      H4  970   0.665   2.745   1.387  0.0012  2.6334  1.5190
   43DG      H5  971   0.533   2.861   1.405  1.1056  1.1474 -1.2195
   43DG      H6  972   0.241   2.116   1.163 -0.6366  1.1505  0.0047
   43DG      H7  973   0.364   2.195   1.073 -0.9751  1.6758  1.2126
   43DG      H8  974   0.403   2.058   1.180  0.2668 -0.5225  0.5620
   43DG      O9  975   0.482   2.665   1.377  0.1584  0.6251 -0.2227
   43DG     O10  976   0.368   2.249   1.270  0.3588  0.1737  0.3567
   43DG     C11  977   0.465   2.639   1.520 -0.4413  0.2740  0.0826
   43DG     C12  978   0.355   2.199   1.404  0.3065  0.0525  0.2212
   43DG     H13  979   0.443   2.733   1.570 -0.2206 -0.1756  1.0669
   43DG     H14  980   0.550   2.597   1.574  0.0837 -0.9369 -1.6007
   43DG     H15  981   0.443   2.158   1.452  0.3152  0.2917  0.4108
   43DG     H16  982   0.279   2.121   1.400  0.7086 -0.5704  2.8510
   43DG     C17  983   0.351   2.537   1.536 -0.3242 -0.1462 -0.6126
   43DG     C18  984   0.285   2.311   1.476  0.0100  0.2421  0.5382
   43DG     O19  985   0.384   2.412   1.469 -0.3135 -0.2851  0.5850
   43DG     H20  986   0.257   2.577   1.496 -2.0164 -1.2941  1.9286
   43DG     H21  987   0.337   2.509   1.641  1.3400 -1.0635 -0.6115
   43DG     H22  988   0.194   2.347   1.429 -0.0348  1.3901  1.4569
   43DG     H23  989   0.266   2.291   1.581  1.0702 -2.7831  0.2625
   44DG      C1  990   0.641   1.686   1.202 -0.3721  0.0579 -0.0749
   44DG      C2  991   0.060   1.991   1.650  0.5674  0.4797 -0.1963
   44DG      H3  992   0.667   1.697   1.097 -1.4272  0.2877 -0.3294
   44DG      H4  993   0.673   1.587   1.235 -1.2650 -0.5925 -1.0783
   44DG      H5  994   0.709   1.751   1.257  0.5522  0.2310 -1.3765
   44DG      H6  995   0.054   1.901   1.710  3.6510  1.3608  1.6589
   44DG      H7  996   0.126   2.055   1.708  1.3990 -1.5474  1.1974
   44DG      H8  997  -0.040   2.034   1.649 -1.5110 -3.8117 -1.3213
   44DG      O9  998   0.502   1.705   1.233  0.3911  0.6658  0.4402
   44DG     O10  999   0.116   1.968   1.521 -0.8302  0.3720 -0.2981
   44DG     C11 1000   0.458   1.688   1.363  0.0791  0.0629 -0.0073
   44DG     C12 1001   0.052   1.864   1.455  0.3219 -0.6237  0.2341
   44DG     H13 1002   0.505   1.762   1.428 -1.7621  1.0701  0.2415
   44DG     H14 1003   0.501   1.596   1.403  1.0504  0.4888 -0.0432
   44DG     H15 1004  -0.054   1.886   1.443  0.3765 -1.1498 -1.4107
   44DG     H16 1005   0.063   1.775   1.516  2.5579  0.0197  0.8677
   44DG     C17 1006   0.307   1.699   1.362 -0.1405  0.5195  0.2097
   44DG     C18 1007   0.124   1.841   1.314  0.0335 -0.0499 -0.1060
   44DG     O19 1008   0.265   1.823   1.321 -0.1145 -1.0143  0.0341
   44DG     H20 1009   0.267   1.669   1.459  1.5564 -1.0303  0.4815
   44DG     H21 1010   0.268   1.621   1.297  0.0181  0.0978  0.6244
   44DG     H22 1011   0.076   1.761   1.257 -0.8550  0.5764 -0.2673
   44DG     H23 1012   0.107   1.934   1.259  1.2479 -0.1548 -0.6812
   45DG      C1 1013   3.890   0.576   4.218  0.2513  0.5766  0.5666
   45DG      C2 1014   3.673   1.307   4.223  0.7545  0.2199 -0.3159
   45DG      H3 1015   3.992   0.609   4.235  0.7354 -0.3224 -0.4883
   45DG      H4 1016   3.890   0.480   4.168 -1.2845  1.0918 -0.4720
   45DG      H5 1017   3.839   0.562   4.314 -2.5429  2.3389 -0.5563
   45DG      H6 1018   3.630   1.306   4.323  0.1273 -1.1275 -0.5725
   45DG      H7 1019   3.754   1.378   4.209 -1.6593  3.1117 -0.7059
   45DG      H8 1020   3.589   1.357   4.175 -0.8711  0.7917  2.8359
   45DG      O9 1021   3.812   0.671   4.155  0.3922 -0.4539  0.1133
   45DG     O10 1022   3.689   1.176   4.168 -0.2159 -0.5494  0.5738
   45DG     C11 1023   3.853   0.704   4.024  0.0640 -0.3555 -0.2153
   45DG     C12 1024   3.809   1.111   4.210  0.5891  0.8163 -0.2943
   45DG     H13 1025   3.844   0.619   3.956 -1.3049 -1.4121  1.2045
   45DG     H14 1026   3.960   0.728   4.022  0.0362  0.3427  2.6108
   45DG     H15 1027   3.809   1.096   4.318 -0.8106 -3.2004 -0.7005
   45DG     H16 1028   3.904   1.156   4.178  0.3835  0.4325 -1.4800
   45DG     C17 1029   3.765   0.821   3.974  0.0961 -0.4935  0.0508
   45DG     C18 1030   3.801   0.960   4.172  0.1647 -0.1740  0.5654
   45DG     O19 1031   3.804   0.948   4.026  0.3624  0.2722  0.7106
   45DG     H20 1032   3.661   0.798   3.999  0.1494 -0.6732  0.1064
   45DG     H21 1033   3.778   0.822   3.866  2.6961 -0.3741  0.3145
   45DG     H22 1034   3.889   0.917   4.219  0.4111 -0.7285 -0.3652
   45DG     H23 1035   3.711   0.923   4.221 -0.6283  1.5883  0.5172
   46DG      C1 1036   4.112   0.727   0.013 -0.8514  0.4285 -0.1423
   46DG      C2 1037   4.111   1.486   0.192 -0.4742 -0.1128 -0.0124
   46DG      H3 1038   4.170   0.700   0.102  1.1207  1.1948 -1.1498
   46DG      H4 1039   4.174   0.711  -0.075  0.4001  1.8672  0.4383
   46DG      H5 1040   4.037   0.649   0.000 -0.6035  0.1347  0.1761
   46DG      H6 1041   4.120   1.514   0.087  0.5705 -2.3880 -0.5863
   46DG      H7 1042   4.061   1.572   0.238  0.5269  1.1896 -1.2560
   46DG      H8 1043   4.211   1.479   0.233 -0.2795  0.0194 -0.4505
   46DG      O9 1044   4.048   0.854   0.005 -0.6965  0.6278 -0.6451
   46DG     O10 1045   4.050   1.358   0.190  0.4401  0.4365  0.1054
   46DG     C11 1046   4.136   0.956   0.018  0.1470 -0.0039 -0.0719
   46DG     C12 1047   4.024   1.288   0.309 -0.2531 -0.0840 -0.8932
   46DG     H13 1048   4.198   0.981  -0.068  0.7649 -0.6467  0.1722
   46DG     H14 1049   4.215   0.934   0.091 -0.7923 -0.7940  0.7268
   46DG     H15 1050   3.971   1.358   0.374  0.3519  0.8798 -1.4201
   46DG     H16 1051   4.117   1.257   0.357  0.6009  1.9093 -1.1593
   46DG     C17 1052   4.070   1.078   0.083 -0.5984  0.3995 -0.1018
   46DG     C18 1053   3.934   1.166   0.272 -0.3882 -0.2247  0.1016
   46DG     O19 1054   4.011   1.059   0.205  0.0620  0.3020 -0.2029
   46DG     H20 1055   3.996   1.118   0.013  0.5988 -2.9395 -3.6355
   46DG     H21 1056   4.142   1.160   0.077  0.0769  0.0330  2.2266
   46DG     H22 1057   3.879   1.134   0.360  0.0985 -0.3953  0.3471
   46DG     H23 1058   3.862   1.203   0.199 -2.3231  0.6985  2.3447
   47DG      C1 1059   2.167   4.420   0.397 -0.5298  0.6061  0.3956
   47DG      C2 1060   1.676   4.260   0.828 -0.3635  0.0241  0.2019
   47DG      H3 1061   2.211   4.334   0.447  0.8086  2.3610  2.4223
   47DG      H4 1062   2.193   4.506   0.459  1.9658 -0.1436  0.5004
   47DG      H5 1063   2.213   4.423   0.298 -0.1140 -0.1366  0.5570
   47DG      H6 1064   1.738   4.172   0.845 -0.6088 -0.1917 -0.0018
   47DG      H7 1065   1.716   4.335   0.896  1.8525 -2.6644  2.0600
   47DG      H8 1066   1.572   4.246   0.857  0.5284 -1.5331  2.9787
   47DG      O9 1067   2.031   4.387   0.403 -0.2927  0.0250  0.5594
   47DG     O10 1068   1.697   4.295   0.688  0.0445 -0.5374 -0.3757
   47DG     C11 1069   1.957   4.503   0.347  0.2609  0.2100 -0.3165
   47DG     C12 1070   1.615   4.402   0.641  0.5561 -0.1954  0.3574
   47DG     H13 1071   2.000   4.531   0.252  1.7968  1.0259  0.5823
   47DG     H14 1072   1.976   4.582   0.420 -0.2913  1.4690 -1.4875
   47DG     H15 1073   1.630   4.497   0.691  2.3544 -0.3945  0.2527
   47DG     H16 1074   1.510   4.372   0.653  0.5034 -0.1082  0.1164
   47DG     C17 1075   1.806   4.481   0.344 -0.6849  0.0233  0.0029
   47DG     C18 1076   1.640   4.442   0.500 -0.1940  0.0683 -0.1898
   47DG     O19 1077   1.778   4.448   0.481  0.9304 -0.6025 -0.6722
   47DG     H20 1078   1.781   4.403   0.272 -0.5001 -3.0409  2.9670
   47DG     H21 1079   1.748   4.570   0.320 -1.7877 -0.5046  0.6397
   47DG     H22 1080   1.603   4.371   0.427  2.0061 -1.5760  0.2125
   47DG     H23 1081   1.581   4.532   0.479 -2.1060 -1.1547 -0.3139
   48DG      C1 1082   4.795   3.698   2.460 -0.6043  0.0338  0.1632
   48DG      C2 1083   4.796   4.251   2.060  0.8625  0.7247  0.2597
   48DG      H3 1084   4.776   3.592   2.474  2.0585 -0.4643  0.4306
   48DG      H4 1085   4.764   3.750   2.550 -3.4483 -1.1852  0.0077
   48DG      H5 1086   4.903   3.700   2.448 -0.5268 -1.4696  0.4129
   48DG      H6 1087   4.887   4.266   2.118  1.2703  1.3442 -0.5205
   48DG      H7 1088   4.782   4.326   1.982 -1.3104 -0.0212 -0.1603
   48DG      H8 1089   4.717   4.271   2.132  1.7055 -1.1345  1.7813
   48DG      O9 1090   4.724   3.741   2.343  0.2261 -0.1245  0.1634
   48DG     O10 1091   4.793   4.120   2.015  0.4352  0.0574  0.1235
   48DG     C11 1092   4.775   3.668   2.231  0.5148 -0.0321  0.2668
   48DG     C12 1093   4.670   4.069   1.960 -0.3802 -0.1360 -0.0170
   48DG     H13 1094   4.747   3.563   2.230 -1.1371  0.3856 -0.0818
   48DG     H14 1095   4.883   3.681   2.235  0.5356 -0.4132  2.2344
   48DG     H15 1096   4.665   4.103   1.856  2.0402 -1.1515 -0.5328
   48DG     H16 1097   4.578   4.110   2.003  0.2227  1.1281  0.1160
   48DG     C17 1098   4.713   3.724   2.103 -1.0281  0.4067  0.4238
   48DG     C18 1099   4.661   3.918   1.976 -0.8049 -0.1220 -0.0444
   48DG     O19 1100   4.723   3.867   2.095  0.5378 -0.0250 -0.7740
   48DG     H20 1101   4.609   3.694   2.090 -1.5040  1.7127  1.0050
   48DG     H21 1102   4.773   3.688   2.019 -0.0377  1.1946  0.7704
   48DG     H22 1103   4.563   3.875   1.956 -0.2106 -0.8148 -1.6255
   48DG     H23 1104   4.722   3.876   1.896  0.9746  0.4141  0.9690
   49DG      C1 1105   1.676   2.304   1.053  0.1890  0.4919 -0.2166
   49DG      C2 1106   1.490   1.735   1.361  0.7801 -0.1326 -0.1681
   49DG      H3 1107   1.573   2.334   1.070 -0.8210 -2.8682  0.2299
   49DG      H4 1108   1.678   2.245   0.962 -1.4264 -0.0013  0.0317
   49DG      H5 1109   1.735   2.396   1.042  2.0855 -0.6816 -0.3615
   49DG      H6 1110   1.401   1.792   1.389  0.9491 -0.5124  1.2187
   49DG      H7 1111   1.465   1.669   1.278 -0.3122 -0.0036  0.0339
   49DG      H8 1112   1.508   1.673   1.448 -0.0808  2.0929  1.7215
   49DG      O9 1113   1.726   2.218   1.156 -0.7989  0.1567 -0.2515
   49DG     O10 1114   1.579   1.836   1.336  0.2574  0.2712 -0.3050
   49DG     C11 1115   1.867   2.194   1.146  0.4611  0.0653 -0.3272
   49DG     C12 1116   1.709   1.770   1.320  0.6041  0.5522 -0.0754
   49DG     H13 1117   1.932   2.280   1.164  0.6959 -0.6448  2.6853
   49DG     H14 1118   1.898   2.162   1.046  1.7854 -0.1729  0.1422
   49DG     H15 1119   1.708   1.718   1.224 -0.1220 -0.1215  0.2899
   49DG     H16 1120   1.723   1.701   1.404  0.0094 -1.5981 -1.6527
   49DG     C17 1121   1.897   2.081   1.241  0.2586  0.0483  0.3949
   49DG     C18 1122   1.822   1.871   1.314  0.3749 -0.1758  0.0152
   49DG     O19 1123   1.795   1.980   1.228 -0.2539 -0.6934 -0.0570
   49DG     H20 1124   1.916   2.116   1.342  4.2365  0.4502 -0.3278
   49DG     H21 1125   1.990   2.036   1.207  0.3892  2.1704 -2.4569
   49DG     H22 1126   1.837   1.900   1.418 -2.4449 -0.8182  0.6840
   49DG     H23 1127   1.917   1.821   1.300  0.9905  0.5015  1.5938
   50DG      C1 1128   2.327   4.844   3.473  0.1117  0.4759 -0.1856
   50DG      C2 1129   2.695   4.400   3.727 -0.1876  0.3098 -0.1663
   50DG      H3 1130   2.421   4.893   3.447  0.2229 -0.5053 -1.7228
   50DG      H4 1131   2.234   4.897   3.450 -1.4292 -1.8255  0.4568
   50DG      H5 1132   2.322   4.762   3.401  1.2231  1.1844 -1.1157
   50DG      H6 1133   2.676   4.301   3.684  0.7871  0.1883 -0.3217
   50DG      H7 1134   2.735   4.454   3.641 -0.3352 -1.5256 -1.4402
   50DG      H8 1135   2.761   4.389   3.813  0.4843  0.5664 -0.6466
   50DG      O9 1136   2.316   4.792   3.609  0.1904 -0.1879 -0.3185
   50DG     O10 1137   2.577   4.468   3.770  0.6120  0.1544  0.0953
   50DG     C11 1138   2.198   4.722   3.645  0.3221 -0.2385  0.0024
   50DG     C12 1139   2.485   4.392   3.844  0.5338  0.5950  0.1114
   50DG     H13 1140   2.162   4.645   3.577 -1.8684  0.8755 -0.1807
   50DG     H14 1141   2.112   4.788   3.660 -1.1095 -2.0950  0.3852
   50DG     H15 1142   2.525   4.374   3.943  0.9313  2.0356  0.2332
   50DG     H16 1143   2.445   4.306   3.789 -1.9692  2.0804 -0.5503
   50DG     C17 1144   2.227   4.646   3.777  0.3608  0.3046 -0.2696
   50DG     C18 1145   2.368   4.484   3.868  0.2084  0.2286 -0.5667
   50DG     O19 1146   2.328   4.555   3.754  0.3440 -0.2170 -0.7008
   50DG     H20 1147   2.133   4.595   3.792  2.1383 -3.0690  0.2303
   50DG     H21 1148   2.239   4.717   3.859 -0.4747  0.0512  0.0757
   50DG     H22 1149   2.286   4.419   3.897  0.4791  0.9423  2.0522
   50DG     H23 1150   2.404   4.540   3.955  1.8499 -1.9543  0.2417
   51DG      C1 1151   4.425   4.356   4.421 -0.6671  0.4383 -0.1020
   51DG      C2 1152   3.952   4.227   4.859 -0.1400 -0.2880 -0.6985
   51DG      H3 1153   4.371   4.424   4.356 -0.3871  1.0050  0.2550
   51DG      H4 1154   4.521   4.328   4.376 -0.3183  2.7373 -0.9352
   51DG      H5 1155   4.452   4.411   4.511 -1.0896 -1.9565  1.5908
   51DG      H6 1156   3.851   4.261   4.835  0.0500 -0.4019 -1.7211
   51DG      H7 1157   3.937   4.143   4.926 -2.3227  2.7157  2.9623
   51DG      H8 1158   4.004   4.303   4.917 -0.1299 -0.3996 -0.5613
   51DG      O9 1159   4.351   4.247   4.463 -0.1436 -0.2606  0.0259
   51DG     O10 1160   4.031   4.191   4.744 -0.2410  0.0707 -0.1386
   51DG     C11 1161   4.323   4.147   4.365 -0.2685  0.0278 -0.1176
   51DG     C12 1162   3.952   4.105   4.654 -0.0059 -0.1572 -0.0369
   51DG     H13 1163   4.410   4.095   4.327  0.8473  0.7420  1.3859
   51DG     H14 1164   4.261   4.185   4.283 -2.4058 -0.3368  1.2403
   51DG     H15 1165   3.896   4.174   4.591  0.6823  1.0287  0.6018
   51DG     H16 1166   3.876   4.045   4.706  0.1708 -0.4960 -0.1691
   51DG     C17 1167   4.244   4.043   4.441  0.6252  0.3752  0.8382
   51DG     C18 1168   4.043   4.023   4.569  0.0352 -0.4136 -0.3463
   51DG     O19 1169   4.143   4.105   4.522  0.4363  0.1340 -0.5046
   51DG     H20 1170   4.314   3.983   4.499  0.6126 -0.4699  0.0025
   51DG     H21 1171   4.194   3.977   4.370  1.7277 -0.5866  0.9225
   51DG     H22 1172   4.077   3.938   4.628  1.6022  1.6693  1.9885
   51DG     H23 1173   3.987   3.980   4.486 -0.1810  0.7453 -0.8120
   52DG      C1 1174   5.202   2.860   2.554 -0.1381 -0.2576 -0.6501
   52DG      C2 1175   5.635   2.477   2.836  1.1215  0.1178 -0.0036
   52DG      H3 1176   5.208   2.764   2.502 -0.0004 -0.7867  0.3245
   52DG      H4 1177   5.283   2.927   2.524 -1.9729  2.0120 -0.8596
   52DG      H5 1178   5.107   2.907   2.527  0.3529  0.6753 -0.8018
   52DG      H6 1179   5.619   2.405   2.756 -0.3733  1.6443 -1.1317
   52DG      H7 1180   5.702   2.548   2.789  1.3820 -0.7244 -0.9364
   52DG      H8 1181   5.688   2.434   2.922  0.1198  2.9234  2.1717
   52DG      O9 1182   5.211   2.834   2.691  0.5514 -0.2040 -0.2279
   52DG     O10 1183   5.514   2.531   2.881  0.9909 -0.2746 -0.1580
   52DG     C11 1184   5.101   2.757   2.735  0.4811  0.3692  0.0139
   52DG     C12 1185   5.418   2.445   2.941 -0.5386 -0.2756  0.5935
   52DG     H13 1186   5.094   2.675   2.663 -1.2504  0.4953 -0.0170
   52DG     H14 1187   5.004   2.807   2.732 -0.6214 -1.6864 -2.1047
   52DG     H15 1188   5.452   2.388   3.027  0.5780 -2.4401 -1.1641
   52DG     H16 1189   5.394   2.372   2.863 -0.3628 -2.0362  2.1282
   52DG     C17 1190   5.144   2.705   2.870 -0.5216  0.2480 -0.4059
   52DG     C18 1191   5.288   2.527   2.972  0.4266  0.0512 -0.3879
   52DG     O19 1192   5.254   2.609   2.856  0.8782 -0.5130 -0.5168
   52DG     H20 1193   5.059   2.648   2.909 -1.5066  2.2086  0.4396
   52DG     H21 1194   5.176   2.786   2.936  0.2138 -0.4877  0.1572
   52DG     H22 1195   5.208   2.457   2.993 -0.1994  1.2017  1.2008
   52DG     H23 1196   5.312   2.601   3.048 -0.7636 -0.4912  0.5530
   53DG      C1 1197   2.797   4.533   0.311 -0.2954  0.0402 -0.2214
   53DG      C2 1198   2.500   4.525   1.118 -0.6383 -0.5697  0.2752
   53DG      H3 1199   2.900   4.570   0.306  1.1026 -3.5340 -1.3186
   53DG      H4 1200   2.744   4.573   0.224  1.1086  1.5901 -0.4062
   53DG      H5 1201   2.814   4.425   0.306  1.3803  0.3201 -1.7315
   53DG      H6 1202   2.560   4.545   1.207  4.0407 -0.0843 -2.6264
   53DG      H7 1203   2.393   4.538   1.132 -0.7973 -1.3009 -0.1641
   53DG      H8 1204   2.522   4.422   1.087  2.0113  0.4508 -1.6275
   53DG      O9 1205   2.721   4.571   0.423 -0.8634  0.3907 -0.3294
   53DG     O10 1206   2.550   4.618   1.017  0.1404  0.2705 -0.0831
   53DG     C11 1207   2.598   4.516   0.446  0.9132  0.3732 -0.5540
   53DG     C12 1208   2.469   4.604   0.898 -0.7757 -0.9198  0.1514
   53DG     H13 1209   2.603   4.413   0.480 -1.5600  1.1055  2.4964
   53DG     H14 1210   2.527   4.508   0.364 -0.6205 -0.3617  0.8076
   53DG     H15 1211   2.370   4.647   0.912 -0.4819  0.6448 -1.9928
   53DG     H16 1212   2.463   4.500   0.866 -1.3978 -0.2826 -2.0289
   53DG     C17 1213   2.519   4.600   0.551 -0.0467 -0.0073  0.4493
   53DG     C18 1214   2.535   4.682   0.781 -0.6248  0.2692 -0.3889
   53DG     O19 1215   2.576   4.581   0.681 -0.5829  0.0385 -0.2595
   53DG     H20 1216   2.417   4.565   0.539 -0.2623  0.3295  1.2581
   53DG     H21 1217   2.528   4.704   0.522 -0.6961  0.1206  0.7127
   53DG     H22 1218   2.466   4.748   0.729 -2.7571 -2.5428 -1.3873
   53DG     H23 1219   2.627   4.732   0.812 -1.3063  1.0192  0.4634
   54DG      C1 1220   1.590   4.125   3.561 -0.0369 -0.3345 -0.2398
   54DG      C2 1221   1.714   4.417   4.148  0.1853 -0.0307 -0.2458
   54DG      H3 1222   1.615   4.060   3.477  0.6749  0.1258 -0.3875
   54DG      H4 1223   1.635   4.223   3.543 -3.0222  1.3635  0.7897
   54DG      H5 1224   1.482   4.136   3.552 -0.1018 -1.2301 -0.6256
   54DG      H6 1225   1.630   4.479   4.181 -0.1883 -0.5275 -0.2619
   54DG      H7 1226   1.776   4.407   4.237 -0.8336 -0.5521  0.4289
   54DG      H8 1227   1.752   4.477   4.065 -1.6477  0.2568 -0.9453
   54DG      O9 1228   1.626   4.088   3.694  0.4374  0.2760 -0.5566
   54DG     O10 1229   1.689   4.296   4.092  0.1818 -0.1307  0.0669
   54DG     C11 1230   1.548   3.979   3.745 -0.6427  0.1812 -0.9536
   54DG     C12 1231   1.619   4.198   4.179  0.4603 -0.3038  0.6009
   54DG     H13 1232   1.567   3.888   3.688  0.1994  1.5734 -3.0161
   54DG     H14 1233   1.440   3.986   3.737 -0.8919  2.4244  2.2982
   54DG     H15 1234   1.517   4.232   4.197  0.4877 -0.1376  0.4509
   54DG     H16 1235   1.673   4.190   4.273  0.8550 -1.8312  0.2654
   54DG     C17 1236   1.583   3.958   3.898  0.2407 -0.4529 -0.2010
   54DG     C18 1237   1.622   4.059   4.107  0.1922  0.8250  0.5830
   54DG     O19 1238   1.596   4.084   3.971  0.2885 -0.4408  0.5410
   54DG     H20 1239   1.673   3.900   3.920  0.7464  0.5635  0.5150
   54DG     H21 1240   1.493   3.905   3.926 -1.0609 -0.0911 -3.3183
   54DG     H22 1241   1.722   4.018   4.122  0.3508  0.2512 -1.6835
   54DG     H23 1242   1.550   3.995   4.159 -0.4247  0.8352 -0.2453
   55DG      C1 1243   3.751   2.366   4.226  0.7645 -0.1957  0.8061
   55DG      C2 1244   3.597   2.694   3.617  0.4850  0.5293  1.1201
   55DG      H3 1245   3.853   2.353   4.192 -0.0406  1.1965 -2.5489
   55DG      H4 1246   3.697   2.280   4.186 -0.5831  0.7901  0.4385
   55DG      H5 1247   3.746   2.366   4.335  0.1579  1.2797  0.7990
   55DG      H6 1248   3.680   2.633   3.583 -1.5629 -1.3997 -0.7609
   55DG      H7 1249   3.511   2.647   3.568  0.6652 -0.5459  1.8150
   55DG      H8 1250   3.615   2.791   3.570  0.6940 -0.4723 -0.9909
   55DG      O9 1251   3.688   2.481   4.164 -0.0139 -0.7625  0.4214
   55DG     O10 1252   3.578   2.693   3.757 -0.5700 -0.0755  0.4928
   55DG     C11 1253   3.546   2.480   4.185  0.3034 -0.0974 -0.2782
   55DG     C12 1254   3.455   2.742   3.801  0.6369 -0.1942 -0.4981
   55DG     H13 1255   3.512   2.460   4.286 -2.8053  1.0995 -0.9397
   55DG     H14 1256   3.519   2.389   4.131  0.3877 -0.5547  0.4438
   55DG     H15 1257   3.374   2.677   3.767 -0.4516  0.4813  0.6890
   55DG     H16 1258   3.432   2.841   3.761  2.3086  1.0418  1.3960
   55DG     C17 1259   3.476   2.616   4.138  0.5602  0.5867 -0.5196
   55DG     C18 1260   3.449   2.758   3.954 -0.2207  0.0535 -0.2992
   55DG     O19 1261   3.502   2.637   4.000  0.4872  0.2608  0.5045
   55DG     H20 1262   3.501   2.698   4.205  2.0036 -1.0966  1.1011
   55DG     H21 1263   3.369   2.603   4.154  0.6585 -0.0649 -0.3849
   55DG     H22 1264   3.514   2.843   3.977  1.6757 -0.8433 -1.9611
   55DG     H23 1265   3.347   2.774   3.987 -0.2598  0.0251 -0.4071
   56DG      C1 1266   1.608   1.848   2.079 -0.1216 -0.6959 -1.0035
   56DG      C2 1267   1.915   2.061   2.810 -0.2487  0.4006 -0.5993
   56DG      H3 1268   1.560   1.938   2.042 -0.8093 -0.9058 -0.6450
   56DG      H4 1269   1.533   1.780   2.119  0.7129 -1.5969 -0.9280
   56DG      H5 1270   1.664   1.799   1.999  1.6027 -1.0931  0.3846
   56DG      H6 1271   1.967   2.142   2.759  1.6728 -1.5299 -1.8667
   56DG      H7 1272   1.842   2.105   2.879 -0.8755  0.4682 -1.2941
   56DG      H8 1273   1.991   2.014   2.872 -0.8247  1.8948  1.3507
   56DG      O9 1274   1.694   1.899   2.184 -0.0467 -0.1890 -0.0455
   56DG     O10 1275   1.852   1.974   2.718  0.4768 -0.4562  0.2088
   56DG     C11 1276   1.612   1.948   2.290  0.2337  0.3226  0.6350
   56DG     C12 1277   1.920   1.948   2.598 -0.3403  0.2748 -0.3393
   56DG     H13 1278   1.536   1.876   2.322  0.8975 -0.5471  0.3177
   56DG     H14 1279   1.572   2.039   2.247  0.1041  0.0195  0.1021
   56DG     H15 1280   2.019   1.904   2.614 -0.5432 -0.0772 -0.0352
   56DG     H16 1281   1.941   2.041   2.545  2.1087  0.6147  1.0584
   56DG     C17 1282   1.680   2.001   2.408  0.2289  0.4051 -0.1237
   56DG     C18 1283   1.833   1.849   2.518  1.0464 -0.0678  0.1408
   56DG     O19 1284   1.702   1.902   2.509 -0.1965 -0.1109 -0.0128
   56DG     H20 1285   1.610   2.063   2.464 -1.8009 -0.6082 -1.4590
   56DG     H21 1286   1.761   2.065   2.373  0.2107  0.4421 -0.0988
   56DG     H22 1287   1.872   1.819   2.421 -2.4263 -0.7468 -1.1833
   56DG     H23 1288   1.828   1.755   2.572  0.5636 -0.1511 -0.0484
   57DG      C1 1289   1.635   4.939   5.289 -0.3088  0.3896 -0.1366
   57DG      C2 1290   2.054   4.788   4.581  0.6191  0.1363  0.0460
   57DG      H3 1291   1.558   5.010   5.321 -1.0664 -1.3378  2.1033
   57DG      H4 1292   1.709   4.922   5.367 -1.4662 -2.4638  0.4469
   57DG      H5 1293   1.589   4.842   5.271  1.4149 -1.0190  2.5486
   57DG      H6 1294   2.122   4.805   4.497 -3.1132  0.9058 -3.1727
   57DG      H7 1295   2.106   4.732   4.658 -0.0456 -1.4542 -0.6198
   57DG      H8 1296   1.977   4.725   4.536  0.8644  0.1172 -0.3552
   57DG      O9 1297   1.699   4.995   5.176  0.5458  0.6341  0.0658
   57DG     O10 1298   2.009   4.917   4.612  0.7747  0.1976  0.7387
   57DG     C11 1299   1.624   5.002   5.058  0.1138  0.2853  0.5560
   57DG     C12 1300   1.952   4.909   4.743 -0.8402  0.9357  0.0988
   57DG     H13 1301   1.528   5.048   5.082  0.4508  0.2787  2.0355
   57DG     H14 1302   1.602   4.902   5.022  0.2047  0.3351  0.3640
   57DG     H15 1303   2.029   4.909   4.819  0.2548  2.8277 -0.9306
   57DG     H16 1304   1.889   4.819   4.745  0.3588  0.0910  1.4152
   57DG     C17 1305   1.706   5.083   4.952  0.0820 -0.1549 -0.0448
   57DG     C18 1306   1.860   5.028   4.774  0.1452  0.1141  0.2027
   57DG     O19 1307   1.805   4.996   4.900  0.4994  0.1633  0.6279
   57DG     H20 1308   1.756   5.168   4.999  2.3835 -2.5069  2.1502
   57DG     H21 1309   1.628   5.109   4.881 -1.6019 -1.6261  1.1711
   57DG     H22 1310   1.915   5.122   4.767  1.7010 -0.8709 -1.8562
   57DG     H23 1311   1.779   5.038   4.701  0.3937 -0.8509 -0.2111
   58DG      C1 1312   4.792   0.043   2.971  0.3183  0.2289 -0.0684
   58DG      C2 1313   5.352   0.566   2.869 -1.0426 -0.0451  0.2415
   58DG      H3 1314   4.765   0.134   3.026 -3.1185  1.4325 -3.3666
   58DG      H4 1315   4.807  -0.039   3.042  1.3403  0.3381 -0.1428
   58DG      H5 1316   4.705   0.017   2.912  1.7502 -1.2841 -1.6054
   58DG      H6 1317   5.360   0.572   2.977 -2.2304 -0.9974  0.3981
   58DG      H7 1318   5.451   0.585   2.825 -0.6561 -0.3593  0.9558
   58DG      H8 1319   5.299   0.660   2.851  0.9717  1.1667  0.3031
   58DG      O9 1320   4.903   0.056   2.885  0.0619  0.0704 -0.2574
   58DG     O10 1321   5.262   0.466   2.823 -0.0762 -0.2397  0.2488
   58DG     C11 1322   4.886   0.155   2.792  0.0272 -0.8775  0.5063
   58DG     C12 1323   5.323   0.339   2.789  0.0398  0.0242 -0.5291
   58DG     H13 1324   4.860   0.251   2.837 -2.0697 -0.3746 -1.5482
   58DG     H14 1325   4.807   0.130   2.721  2.1983 -0.9515 -2.0270
   58DG     H15 1326   5.361   0.286   2.876  2.7247  0.8044 -1.1425
   58DG     H16 1327   5.412   0.356   2.728 -0.7725 -0.1343 -1.8139
   58DG     C17 1328   5.007   0.177   2.708  0.8118 -1.0260 -0.8612
   58DG     C18 1329   5.230   0.234   2.731  0.1510 -0.8776 -0.5319
   58DG     O19 1330   5.098   0.260   2.781  0.2981 -0.8716  0.0130
   58DG     H20 1331   4.968   0.238   2.626  0.5600  0.9835  0.6589
   58DG     H21 1332   5.049   0.085   2.669  0.6954 -2.0575  1.3431
   58DG     H22 1333   5.254   0.247   2.626  2.4119  0.9285  0.1110
   58DG     H23 1334   5.261   0.132   2.750 -2.2609 -1.6291 -0.3230
   59DG      C1 1335   1.323   3.826   1.336 -0.5613 -0.9586  0.0824
   59DG      C2 1336   1.241   4.267   0.855 -0.1726 -0.0209  0.6087
   59DG      H3 1337   1.429   3.804   1.347 -0.3002  0.8252  1.8160
   59DG      H4 1338   1.290   3.773   1.247  1.0011  1.9868 -2.4128
   59DG      H5 1339   1.279   3.779   1.424 -0.4262 -1.4062 -0.0863
   59DG      H6 1340   1.146   4.319   0.866  1.6864  3.6406  0.8968
   59DG      H7 1341   1.315   4.331   0.807  1.2291  0.0048  2.6333
   59DG      H8 1342   1.220   4.181   0.792  0.9102 -0.1349  0.3856
   59DG      O9 1343   1.282   3.963   1.328 -0.3019 -0.0404 -0.2104
   59DG     O10 1344   1.266   4.234   0.989  0.0588 -0.0223  0.0054
   59DG     C11 1345   1.360   4.048   1.414 -0.0286 -0.0743 -0.2333
   59DG     C12 1346   1.316   4.344   1.063  0.2018 -0.0198 -0.0679
   59DG     H13 1347   1.464   4.042   1.382  0.5936 -0.5631  1.7400
   59DG     H14 1348   1.368   4.017   1.518 -0.6304 -0.7353 -0.3774
   59DG     H15 1349   1.284   4.442   1.028 -1.4117 -0.1674  0.8824
   59DG     H16 1350   1.424   4.338   1.049 -0.0419 -0.1547 -2.1639
   59DG     C17 1351   1.314   4.191   1.389 -0.5147  0.2980 -0.5766
   59DG     C18 1352   1.298   4.332   1.207  0.2778 -0.5883 -0.4565
   59DG     O19 1353   1.348   4.207   1.253 -0.0053  0.1962 -0.6376
   59DG     H20 1354   1.366   4.257   1.459  1.9781 -0.5436 -1.5027
   59DG     H21 1355   1.207   4.191   1.411 -0.4606 -1.0310 -0.1674
   59DG     H22 1356   1.337   4.416   1.265 -1.4933 -0.7867  1.0872
   59DG     H23 1357   1.191   4.341   1.225  0.3440  0.0516 -0.3495
   60DG      C1 1358   3.905   0.716   1.591  0.3366 -0.6169 -0.3865
   60DG      C2 1359   3.945   0.088   1.165  0.1295 -0.0338  0.8901
   60DG      H3 1360   3.879   0.797   1.522 -0.0806  0.6816  1.2411
   60DG      H4 1361   4.013   0.712   1.601  0.3504 -1.5584 -0.7994
   60DG      H5 1362   3.854   0.736   1.685  2.0217 -0.6358  0.5598
   60DG      H6 1363   4.043   0.078   1.213  1.0526  2.4817 -0.2480
   60DG      H7 1364   3.900  -0.011   1.157  0.0819  0.1013 -0.7630
   60DG      H8 1365   3.971   0.127   1.066 -0.8514 -1.1525  0.1796
   60DG      O9 1366   3.864   0.599   1.525  1.0038  0.2401 -0.1940
   60DG     O10 1367   3.874   0.176   1.251  0.0328  0.0852  0.1984
   60DG     C11 1368   3.726   0.608   1.486  0.3384  0.5569  0.1401
   60DG     C12 1369   3.738   0.201   1.212 -0.6585  0.5066  0.2255
   60DG     H13 1370   3.705   0.671   1.400 -1.0207 -0.3602 -0.2257
   60DG     H14 1371   3.659   0.648   1.563 -1.7282 -1.3244 -0.5624
   60DG     H15 1372   3.701   0.099   1.197  0.4273 -0.2971  2.5140
   60DG     H16 1373   3.730   0.259   1.120  1.6014  0.8007  0.1504
   60DG     C17 1374   3.670   0.468   1.452 -0.2839  0.0271 -0.3598
   60DG     C18 1375   3.666   0.275   1.316 -0.2972 -0.5346 -0.3576
   60DG     O19 1376   3.729   0.397   1.338  0.1029  0.1768  0.2292
   60DG     H20 1377   3.562   0.472   1.438 -0.4364  1.5007  0.9062
   60DG     H21 1378   3.674   0.407   1.543 -0.8261  0.2578 -0.1735
   60DG     H22 1379   3.562   0.296   1.290 -0.3788  1.3079  1.2126
   60DG     H23 1380   3.668   0.227   1.413  2.0302  0.9040  0.3878
   61DG      C1 1381   4.350   4.229   4.934 -0.3583  0.5210  0.6671
   61DG      C2 1382   3.997   4.395   4.348  0.1203 -0.1122 -0.1325
   61DG      H3 1383   4.328   4.132   4.888 -1.6808  1.5129 -0.9204
   61DG      H4 1384   4.329   4.221   5.041 -1.6889  1.0742  0.4582
   61DG      H5 1385   4.456   4.244   4.915 -0.1478 -0.7380  0.7150
   61DG      H6 1386   4.058   4.318   4.300  1.0276 -0.4460  1.4681
   61DG      H7 1387   3.915   4.357   4.409  0.2173  0.5808  0.4421
   61DG      H8 1388   3.961   4.470   4.279  1.8501  0.2371 -0.6958
   61DG      O9 1389   4.280   4.330   4.867 -0.8946  0.8901  0.5941
   61DG     O10 1390   4.087   4.456   4.442 -0.8564  0.1791 -0.1548
   61DG     C11 1391   4.319   4.460   4.898  0.6184  0.1769  0.8740
   61DG     C12 1392   4.015   4.550   4.529 -0.1426  0.2214  0.0196
   61DG     H13 1393   4.413   4.481   4.845 -1.2419  4.0835 -1.3127
   61DG     H14 1394   4.336   4.472   5.005  1.1335 -1.0463  0.9459
   61DG     H15 1395   3.929   4.506   4.579  0.5289 -3.1385 -1.4654
   61DG     H16 1396   3.970   4.629   4.469 -1.6099  0.9054  1.9491
   61DG     C17 1397   4.223   4.560   4.835  0.7235 -0.4217  0.4853
   61DG     C18 1398   4.103   4.613   4.637 -0.4855 -0.2127  0.6070
   61DG     O19 1399   4.182   4.516   4.705  0.3446 -0.3179  0.5775
   61DG     H20 1400   4.283   4.651   4.827 -1.7789  1.3131  0.2685
   61DG     H21 1401   4.138   4.592   4.895  0.2256  0.0664 -0.4586
   61DG     H22 1402   4.161   4.690   4.586 -2.8118  0.7253 -0.7676
   61DG     H23 1403   4.046   4.673   4.708  0.9479  1.4057  0.4606
   62DG      C1 1404   2.270   1.387   3.839 -1.0173 -0.8489  0.0691
   62DG      C2 1405   2.009   0.885   3.638 -0.4274 -0.2829  0.9313
   62DG      H3 1406   2.317   1.289   3.845 -0.6906 -0.8245 -1.4639
   62DG      H4 1407   2.206   1.413   3.923  0.7142  2.5103  0.5355
   62DG      H5 1408   2.340   1.469   3.854  1.1439 -2.7644  0.9175
   62DG      H6 1409   1.913   0.914   3.594  1.0136  0.3921 -2.0336
   62DG      H7 1410   2.054   0.795   3.596 -2.2715 -0.4744 -0.8140
   62DG      H8 1411   1.993   0.877   3.746  1.3159  0.5587  1.2824
   62DG      O9 1412   2.210   1.397   3.711  0.4822 -0.5938  0.9539
   62DG     O10 1413   2.101   0.991   3.619  0.4723  0.1573  0.4068
   62DG     C11 1414   2.305   1.385   3.608 -0.3005 -0.3571  0.5898
   62DG     C12 1415   2.145   0.996   3.479  0.3726 -0.2522 -0.0863
   62DG     H13 1416   2.372   1.304   3.640 -0.7333 -1.7762 -1.8537
   62DG     H14 1417   2.352   1.483   3.603 -1.7248  0.2766 -1.6143
   62DG     H15 1418   2.055   0.992   3.416  0.5320  1.2812 -0.4432
   62DG     H16 1419   2.195   0.904   3.450  0.4059 -0.2949  0.1077
   62DG     C17 1420   2.237   1.356   3.474  0.6792  0.0688  0.3358
   62DG     C18 1421   2.222   1.118   3.445 -0.5935 -0.5091  0.4048
   62DG     O19 1422   2.156   1.239   3.487 -0.2422  0.8346  0.0576
   62DG     H20 1423   2.310   1.347   3.394  0.4781  3.0792 -0.3047
   62DG     H21 1424   2.174   1.440   3.446  0.1914 -0.8089 -1.2951
   62DG     H22 1425   2.312   1.115   3.506  0.3772  1.9436 -0.7952
   62DG     H23 1426   2.232   1.130   3.338 -1.5839 -0.3161  0.3230
   63DG      C1 1427   1.890   0.169   1.617  0.9840  0.2396 -0.2195
   63DG      C2 1428   1.619   0.079   0.845  1.1782  0.5625 -0.4018
   63DG      H3 1429   1.900   0.236   1.703  0.9966  0.7772 -0.6375
   63DG      H4 1430   1.987   0.140   1.576 -0.2120 -2.0968 -1.5705
   63DG      H5 1431   1.846   0.080   1.661  0.4828  1.4292  1.8248
   63DG      H6 1432   1.586   0.105   0.744  0.4880 -2.4790 -1.0558
   63DG      H7 1433   1.719   0.037   0.832  1.9293  1.4136  2.0982
   63DG      H8 1434   1.545   0.002   0.865  0.4881  1.3438  0.0774
   63DG      O9 1435   1.816   0.228   1.509  0.2916  0.6760  0.2758
   63DG     O10 1436   1.621   0.185   0.943  0.1179 -0.1289  0.0720
   63DG     C11 1437   1.680   0.239   1.550 -0.0296 -0.3932  0.0565
   63DG     C12 1438   1.607   0.144   1.075 -0.1692 -0.3793  0.2615
   63DG     H13 1439   1.675   0.316   1.627 -0.9995  1.0593 -1.3961
   63DG     H14 1440   1.636   0.144   1.581 -0.3492 -0.8563 -1.7085
   63DG     H15 1441   1.692   0.077   1.094 -0.6723 -1.3670 -0.8444
   63DG     H16 1442   1.519   0.080   1.078 -0.4593 -0.1187 -1.5324
   63DG     C17 1443   1.613   0.302   1.425 -0.2874 -0.1792 -0.2194
   63DG     C18 1444   1.609   0.259   1.180  0.2269  1.2282 -0.3904
   63DG     O19 1445   1.628   0.212   1.315 -0.2907  0.2652 -0.0690
   63DG     H20 1446   1.650   0.403   1.410 -0.5928 -0.2852 -1.9337
   63DG     H21 1447   1.507   0.312   1.449 -0.0166  1.1520  0.4976
   63DG     H22 1448   1.689   0.330   1.161  1.5492 -0.5079 -1.5449
   63DG     H23 1449   1.514   0.312   1.170 -1.3002 -1.2761  0.0160
   64DG      C1 1450   0.950   4.092   1.496 -0.4648  0.3613 -0.5300
   64DG      C2 1451   1.335   3.918   0.951  0.0816  0.1497 -0.5618
   64DG      H3 1452   1.011   4.181   1.507 -1.0194  0.6337  0.4614
   64DG      H4 1453   0.967   4.028   1.583  1.3158  2.6802  0.9314
   64DG      H5 1454   0.849   4.129   1.514 -0.8321 -0.9655  0.2846
   64DG      H6 1455   1.372   4.019   0.932  1.0164  0.1177  0.9574
   64DG      H7 1456   1.383   3.882   1.042 -0.9420  0.0278 -0.0605
   64DG      H8 1457   1.366   3.855   0.868 -1.1927  0.2542 -1.1484
   64DG      O9 1458   0.964   4.038   1.365 -0.4574 -0.0734 -0.3248
   64DG     O10 1459   1.193   3.910   0.951  0.3762 -0.1152  0.5042
   64DG     C11 1460   0.899   3.908   1.356 -0.2614  0.0315  0.3357
   64DG     C12 1461   1.135   3.782   0.948 -0.2662 -0.2936  0.0586
   64DG     H13 1462   0.800   3.920   1.399 -1.8401 -2.8730 -2.0956
   64DG     H14 1463   0.948   3.830   1.414  1.8570  0.3451 -0.9218
   64DG     H15 1464   1.205   3.713   0.996  0.1293  0.3615  0.4431
   64DG     H16 1465   1.136   3.753   0.843 -0.5430  0.6924 -0.2203
   64DG     C17 1466   0.887   3.854   1.211  0.4635 -0.7881  0.0375
   64DG     C18 1467   1.001   3.780   1.026  0.0484  0.2244  0.4923
   64DG     O19 1468   1.015   3.847   1.146 -0.2405 -0.3487 -0.2504
   64DG     H20 1469   0.822   3.916   1.151 -0.5396 -0.8341  1.0438
   64DG     H21 1470   0.838   3.757   1.212 -2.5273  0.6192  0.7322
   64DG     H22 1471   0.935   3.846   0.970  0.7965 -0.1126 -0.8423
   64DG     H23 1472   0.964   3.678   1.034 -1.4174  0.8064  1.4322
   65DG      C1 1473   1.463   3.084   0.651 -0.2902 -0.4159  0.0781
   65DG      C2 1474   2.130   3.240   0.575  0.0715 -0.5672 -0.0292
   65DG      H3 1475   1.428   3.187   0.653 -1.5254 -0.7758 -1.3992
   65DG      H4 1476   1.371   3.027   0.661 -0.5146 -0.1939 -0.6703
   65DG      H5 1477   1.511   3.061   0.556  0.4037 -0.6162  0.4749
   65DG      H6 1478   2.115   3.324   0.642  2.1387 -0.3926  0.2926
   65DG      H7 1479   2.204   3.169   0.612 -0.2064 -1.1269 -0.5327
   65DG      H8 1480   2.168   3.284   0.482  0.4395  0.1885  0.4732
   65DG      O9 1481   1.536   3.033   0.762  0.2909 -0.5255 -0.1198
   65DG     O10 1482   2.018   3.163   0.549  0.0169  0.6520  0.4669
   65DG     C11 1483   1.625   3.125   0.821 -0.2504 -0.2673 -0.0770
   65DG     C12 1484   1.921   3.243   0.482 -0.4536  0.1347  0.7588
   65DG     H13 1485   1.648   3.086   0.920 -1.8937  1.4243  1.0394
   65DG     H14 1486   1.584   3.224   0.838 -0.8387 -0.4969 -0.1582
   65DG     H15 1487   1.939   3.246   0.375 -0.9246 -3.2644  0.4945
   65DG     H16 1488   1.905   3.344   0.522 -0.8525 -0.2663  1.6563
   65DG     C17 1489   1.759   3.127   0.733  0.9897 -0.5907 -0.2183
   65DG     C18 1490   1.784   3.174   0.498  0.0271 -0.3409 -0.3061
   65DG     O19 1491   1.721   3.207   0.620 -0.1279 -0.1484 -0.3001
   65DG     H20 1492   1.768   3.022   0.705  0.6473 -1.0291  1.2359
   65DG     H21 1493   1.848   3.164   0.783 -0.2115  0.1606  1.4515
   65DG     H22 1494   1.715   3.212   0.422 -0.2501  0.0364  0.1254
   65DG     H23 1495   1.796   3.067   0.483  1.9499  0.1347 -2.6892
   66DG      C1 1496   2.291   2.195   2.692 -0.2424  0.1390  0.0849
   66DG      C2 1497   2.817   2.238   2.985  0.0591  0.0973 -0.3134
   66DG      H3 1498   2.245   2.209   2.790  0.2151 -1.5594  0.5848
   66DG      H4 1499   2.200   2.158   2.643 -1.1157 -0.6040  2.1404
   66DG      H5 1500   2.331   2.287   2.648  2.1467 -1.3915 -1.1872
   66DG      H6 1501   2.746   2.287   3.053 -2.5130  0.8425 -3.2743
   66DG      H7 1502   2.907   2.216   3.042 -0.2998 -0.0277  0.2218
   66DG      H8 1503   2.840   2.320   2.917 -2.0878  2.2371  1.3306
   66DG      O9 1504   2.388   2.096   2.704  0.4028 -0.0492 -0.2502
   66DG     O10 1505   2.751   2.131   2.921 -0.0646  0.7899  0.2806
   66DG     C11 1506   2.444   2.057   2.573  0.0508 -0.7094 -0.0976
   66DG     C12 1507   2.825   2.072   2.813 -0.0501 -0.5147 -0.4468
   66DG     H13 1508   2.479   2.148   2.524  0.1458  0.2713  1.7221
   66DG     H14 1509   2.370   2.005   2.511  0.1434 -2.4925  1.1920
   66DG     H15 1510   2.912   2.025   2.859 -1.6250 -2.1451  0.9949
   66DG     H16 1511   2.867   2.139   2.738 -1.1331 -0.3335 -0.9124
   66DG     C17 1512   2.558   1.954   2.604  0.0813  0.4760  0.0967
   66DG     C18 1513   2.744   1.961   2.745  0.0143 -0.5708 -0.5618
   66DG     O19 1514   2.635   2.030   2.688 -0.1113 -0.3435  0.1848
   66DG     H20 1515   2.607   1.936   2.509 -3.4135  0.4222 -1.8856
   66DG     H21 1516   2.509   1.867   2.647 -2.9152  2.2451  0.5635
   66DG     H22 1517   2.811   1.927   2.667  0.5646  1.2147 -0.9226
   66DG     H23 1518   2.727   1.879   2.814  0.8967 -0.3379 -0.0464
   67DG      C1 1519   0.326   3.075   1.193  0.6919 -0.4413  0.0464
   67DG      C2 1520   1.076   2.754   1.018  0.2437  0.2651 -0.5867
   67DG      H3 1521   0.283   2.981   1.230  1.5598 -0.6903  0.4509
   67DG      H4 1522   0.260   3.103   1.111  1.2295  2.3956  0.4983
   67DG      H5 1523   0.310   3.154   1.265 -0.9294 -0.5070 -0.2034
   67DG      H6 1524   1.181   2.745   0.993  0.2393 -1.2110 -0.1656
   67DG      H7 1525   1.031   2.657   1.041 -2.8884  1.6714 -0.1961
   67DG      H8 1526   1.031   2.795   0.928  0.1113 -0.8197 -1.0355
   67DG      O9 1527   0.463   3.063   1.161  0.0133  0.0563 -0.0394
   67DG     O10 1528   1.041   2.846   1.123 -0.1722  0.5379  0.7785
   67DG     C11 1529   0.481   3.048   1.025 -0.2576  0.0486  0.2342
   67DG     C12 1530   0.898   2.857   1.143 -0.0399 -0.4860  0.1772
   67DG     H13 1531   0.436   3.129   0.966 -0.9480 -1.1597 -0.9516
   67DG     H14 1532   0.433   2.959   0.985 -2.2243  1.4122 -0.6350
   67DG     H15 1533   0.880   2.891   1.245 -3.1231  0.6165 -0.6128
   67DG     H16 1534   0.864   2.753   1.145  0.4411 -0.6864  3.4119
   67DG     C17 1535   0.625   3.048   0.993 -1.2239 -0.1661 -0.2698
   67DG     C18 1536   0.838   2.958   1.049  0.0487 -0.1450 -0.2155
   67DG     O19 1537   0.703   2.964   1.079  0.4706 -0.0497 -0.6267
   67DG     H20 1538   0.657   3.151   1.012 -0.9778 -0.0441 -1.2960
   67DG     H21 1539   0.638   3.033   0.886 -0.8673 -0.8963 -0.1306
   67DG     H22 1540   0.893   3.050   1.065  0.1950 -0.0471 -1.2212
   67DG     H23 1541   0.856   2.937   0.944 -0.4675  0.9298 -0.5258
   68DG      C1 1542   4.608   2.765   4.421  0.0057 -0.2921 -0.2491
   68DG      C2 1543   3.766   2.825   4.377  0.0094 -0.6434 -0.6661
   68DG      H3 1544   4.705   2.727   4.451 -0.4200 -0.3563  1.1292
   68DG      H4 1545   4.574   2.804   4.517  1.0077 -0.0887  0.0295
   68DG      H5 1546   4.633   2.851   4.358  1.0849 -1.2952 -1.2403
   68DG      H6 1547   3.757   2.934   4.372  2.1630 -0.3260  0.8913
   68DG      H7 1548   3.740   2.784   4.279 -1.2995 -0.6145 -0.3550
   68DG      H8 1549   3.694   2.791   4.452  1.1025 -1.0654  0.2150
   68DG      O9 1550   4.515   2.677   4.361 -0.7649 -0.4561  0.5973
   68DG     O10 1551   3.900   2.793   4.413 -0.1012 -0.0226 -0.2872
   68DG     C11 1552   4.385   2.719   4.343  0.4913 -0.7066 -1.3892
   68DG     C12 1553   3.938   2.654   4.420 -0.2576 -0.1030  0.7997
   68DG     H13 1554   4.349   2.680   4.248 -1.9950  2.3104 -1.8464
   68DG     H14 1555   4.371   2.827   4.335  1.7527 -0.1408  2.1962
   68DG     H15 1556   3.963   2.616   4.321  1.8044  0.6752  0.9856
   68DG     H16 1557   3.865   2.595   4.477  2.6995 -2.2411  2.6644
   68DG     C17 1558   4.294   2.667   4.462 -0.1584  0.2747 -1.1141
   68DG     C18 1559   4.062   2.637   4.503  0.1058 -0.0348 -0.0696
   68DG     O19 1560   4.162   2.706   4.441 -0.3843  0.1099  0.6148
   68DG     H20 1561   4.324   2.713   4.557  0.8687  3.2047 -2.7499
   68DG     H21 1562   4.296   2.560   4.483 -0.3992  0.3216 -0.8342
   68DG     H22 1563   4.039   2.685   4.598 -2.2487  1.8239 -1.4764
   68DG     H23 1564   4.080   2.530   4.520  1.1311  0.2825  1.0761
   69DG      C1 1565   5.150   3.931   0.338  0.1550 -0.2541  0.1713
   69DG      C2 1566   4.520   4.111   0.166 -0.7073 -0.0315  0.4166
   69DG      H3 1567   5.185   3.885   0.245  1.7713  1.2002 -0.0025
   69DG      H4 1568   5.093   3.857   0.394  0.9906  0.9230  2.7385
   69DG      H5 1569   5.235   3.969   0.396 -0.2372 -0.6845  1.0468
   69DG      H6 1570   4.520   4.014   0.217 -0.1353  0.1651  0.8031
   69DG      H7 1571   4.455   4.177   0.223 -0.8121 -1.0639  1.5375
   69DG      H8 1572   4.487   4.111   0.062 -0.7998 -0.3017  0.4439
   69DG      O9 1573   5.064   4.039   0.304 -0.6664 -0.2394 -1.0956
   69DG     O10 1574   4.655   4.154   0.195 -0.2235  0.0015  0.3344
   69DG     C11 1575   5.131   4.137   0.231 -0.7524 -0.3867 -0.0602
   69DG     C12 1576   4.686   4.272   0.129  0.8255 -0.6589  0.0923
   69DG     H13 1577   5.164   4.098   0.135  1.5117 -0.5505  0.7281
   69DG     H14 1578   5.211   4.184   0.289  0.4621 -2.3079 -0.0842
   69DG     H15 1579   4.618   4.357   0.140  1.1395  0.3770 -4.3204
   69DG     H16 1580   4.682   4.264   0.020 -0.0380  3.1873 -0.3037
   69DG     C17 1581   5.039   4.255   0.214 -0.0156 -0.5175  0.3149
   69DG     C18 1582   4.821   4.328   0.170 -0.8705  0.3523 -0.1487
   69DG     O19 1583   4.913   4.219   0.175 -0.8289 -0.2457  0.5529
   69DG     H20 1584   5.088   4.334   0.158  0.4896 -1.2839 -0.3519
   69DG     H21 1585   5.022   4.311   0.306  1.8017 -0.3784  0.6059
   69DG     H22 1586   4.856   4.393   0.089 -0.2717  0.0404 -0.1476
   69DG     H23 1587   4.811   4.390   0.259  0.7562 -1.0759  1.1016
   70DG      C1 1588   1.818   2.257   2.132 -0.6328  0.3635  0.0586
   70DG      C2 1589   1.438   2.854   1.920  0.2535  0.2760 -0.5679
   70DG      H3 1590   1.883   2.328   2.080  0.0700 -1.2983 -1.4257
   70DG      H4 1591   1.868   2.162   2.115 -1.1889 -0.0603  0.7434
   70DG      H5 1592   1.829   2.282   2.237  1.5361 -0.0793 -0.0211
   70DG      H6 1593   1.510   2.931   1.894  0.1055  0.8353  0.6170
   70DG      H7 1594   1.340   2.884   1.881 -0.4291 -0.7053  0.3225
   70DG      H8 1595   1.423   2.854   2.028 -2.9026  0.3813 -0.9043
   70DG      O9 1596   1.679   2.262   2.098 -0.3229  0.0862 -1.1980
   70DG     O10 1597   1.458   2.718   1.879  0.5279 -0.0746  0.5886
   70DG     C11 1598   1.661   2.249   1.961 -0.4332  0.5091  0.0697
   70DG     C12 1599   1.353   2.624   1.909 -0.8838  0.3102  0.3984
   70DG     H13 1600   1.674   2.141   1.947 -0.4533  0.3953  0.8881
   70DG     H14 1601   1.744   2.278   1.896  0.1314 -0.7509  0.1920
   70DG     H15 1602   1.258   2.665   1.874 -1.9087 -0.6574  1.9289
   70DG     H16 1603   1.343   2.621   2.018  2.3415  2.5249  0.9115
   70DG     C17 1604   1.527   2.299   1.906 -0.8783  0.2305 -0.8100
   70DG     C18 1605   1.393   2.484   1.858 -0.1286  0.1892 -0.5018
   70DG     O19 1606   1.512   2.441   1.909 -0.2733 -0.1604 -0.0422
   70DG     H20 1607   1.458   2.232   1.956  0.0560 -0.0804  0.0942
   70DG     H21 1608   1.509   2.279   1.800 -1.3174  0.5090 -0.7904
   70DG     H22 1609   1.303   2.425   1.872 -0.3344  0.5482 -0.3007
   70DG     H23 1610   1.405   2.489   1.750 -1.0613  0.0288 -0.6133
   71DG      C1 1611   4.345   2.188   2.143  0.2612 -0.0203  0.1997
   71DG      C2 1612   4.433   1.582   2.445 -0.6155 -0.3151  0.5827
   71DG      H3 1613   4.300   2.208   2.241  2.5778 -0.0534  1.3447
   71DG      H4 1614   4.263   2.204   2.072  0.3657 -1.3382 -0.2369
   71DG      H5 1615   4.410   2.275   2.140 -1.7693  1.6313  1.2035
   71DG      H6 1616   4.434   1.615   2.549  0.9789  1.2789  0.1085
   71DG      H7 1617   4.334   1.555   2.409 -0.1616  0.0444 -1.0287
   71DG      H8 1618   4.489   1.489   2.446  1.0949  0.6521  0.1036
   71DG      O9 1619   4.421   2.072   2.146 -0.2316 -0.1691  0.3018
   71DG     O10 1620   4.489   1.672   2.347 -0.6787 -0.1763 -0.1603
   71DG     C11 1621   4.462   2.023   2.015  0.7724 -0.1832  0.2023
   71DG     C12 1622   4.498   1.607   2.223 -0.0599 -0.0225  0.7936
   71DG     H13 1623   4.507   2.102   1.954 -0.4244 -0.1349 -0.6417
   71DG     H14 1624   4.377   1.986   1.958 -0.1377  0.7307  0.9181
   71DG     H15 1625   4.397   1.582   2.191  0.0575 -0.9525  1.1156
   71DG     H16 1626   4.552   1.513   2.229  0.5941  0.4112  2.2087
   71DG     C17 1627   4.556   1.908   2.035 -0.7551 -0.0701  0.1395
   71DG     C18 1628   4.560   1.702   2.127 -0.0565 -0.6271 -0.0821
   71DG     O19 1629   4.481   1.816   2.108 -0.2508  0.4969 -0.2798
   71DG     H20 1630   4.646   1.943   2.086 -0.5274  1.5545 -1.3110
   71DG     H21 1631   4.595   1.868   1.941 -1.9378 -0.8188 -0.0470
   71DG     H22 1632   4.657   1.731   2.168 -1.3595  0.3680  2.5113
   71DG     H23 1633   4.572   1.663   2.026 -0.0563 -1.5133  0.2543
   72DG      C1 1634   4.243   2.366   2.744  0.0514 -0.2845  0.6514
   72DG      C2 1635   4.780   2.432   2.095  0.9108  0.6966  0.2900
   72DG      H3 1636   4.160   2.436   2.748 -0.3998 -0.8715  2.8270
   72DG      H4 1637   4.239   2.312   2.839 -1.2438  1.6234  1.7490
   72DG      H5 1638   4.228   2.297   2.661 -1.6932  1.5442 -0.6490
   72DG      H6 1639   4.881   2.466   2.077  0.5115  1.5868 -0.3174
   72DG      H7 1640   4.757   2.332   2.058 -0.6334  0.0008  2.8616
   72DG      H8 1641   4.711   2.503   2.049  0.3485 -0.3301 -0.4952
   72DG      O9 1642   4.368   2.428   2.719  0.3623 -0.0747 -0.5143
   72DG     O10 1643   4.767   2.436   2.238  0.3665  0.3725  0.2772
   72DG     C11 1644   4.366   2.502   2.601 -0.3646 -0.5227 -0.1834
   72DG     C12 1645   4.635   2.407   2.281  0.2826  0.5440  0.2863
   72DG     H13 1646   4.447   2.574   2.614 -0.7822  0.2722 -1.7610
   72DG     H14 1647   4.273   2.558   2.607 -0.3347 -0.5957  1.3912
   72DG     H15 1648   4.607   2.312   2.235 -0.2241  1.7776 -2.1181
   72DG     H16 1649   4.566   2.476   2.232  1.3146  1.7023  0.4152
   72DG     C17 1650   4.383   2.434   2.469 -0.0022 -0.9023  0.0483
   72DG     C18 1651   4.619   2.409   2.427 -0.7295  0.3567  0.2932
   72DG     O19 1652   4.502   2.355   2.469 -0.1288 -0.3180 -0.4045
   72DG     H20 1653   4.395   2.507   2.389  1.2183 -1.4869 -0.3281
   72DG     H21 1654   4.294   2.374   2.451 -1.2665 -0.1859  3.1699
   72DG     H22 1655   4.695   2.342   2.468  0.1622  1.4914  0.5595
   72DG     H23 1656   4.644   2.506   2.470  3.6459 -0.2315 -0.4260
   73DG      C1 1657   5.291   4.679   3.972 -0.4554 -0.2704  0.5273
   73DG      C2 1658   5.630   3.966   4.169 -0.8545  0.1210  0.3226
   73DG      H3 1659   5.237   4.593   3.933 -1.8438  0.4816  0.7265
   73DG      H4 1660   5.356   4.718   3.893 -2.4285 -0.4703 -1.3002
   73DG      H5 1661   5.213   4.754   3.989 -1.6588 -1.0819 -1.1290
   73DG      H6 1662   5.711   3.927   4.107  1.7558  0.8103  3.0247
   73DG      H7 1663   5.667   3.935   4.267 -0.0614  0.2024  0.0538
   73DG      H8 1664   5.532   3.919   4.158 -0.1935 -1.2906  0.2053
   73DG      O9 1665   5.359   4.628   4.081 -0.0220  0.5247  0.1391
   73DG     O10 1666   5.609   4.105   4.162 -0.1679 -0.5285  0.3569
   73DG     C11 1667   5.463   4.535   4.041  0.0746 -0.1252  0.0886
   73DG     C12 1668   5.725   4.185   4.181 -0.3229  0.0833 -0.1980
   73DG     H13 1669   5.547   4.585   3.992 -1.7740  2.3967 -0.7419
   73DG     H14 1670   5.428   4.453   3.979  1.0592 -0.3445 -0.2030
   73DG     H15 1671   5.797   4.199   4.101 -0.9212 -1.6226 -1.0785
   73DG     H16 1672   5.786   4.139   4.259 -2.6069  0.5480  1.9980
   73DG     C17 1673   5.526   4.471   4.159 -0.0342 -0.4589  0.3349
   73DG     C18 1674   5.695   4.322   4.229  0.0295 -0.2502  0.4381
   73DG     O19 1675   5.634   4.392   4.128 -0.1507 -0.1434 -0.0399
   73DG     H20 1676   5.448   4.419   4.216  0.2057  0.8471  1.9623
   73DG     H21 1677   5.552   4.557   4.222 -0.7559 -0.3589  0.5155
   73DG     H22 1678   5.634   4.319   4.319 -0.9145  2.0617 -0.0457
   73DG     H23 1679   5.769   4.394   4.264 -0.5867  0.1922  0.8462
   74DG      C1 1680   0.530   5.049   1.722 -0.2278  0.1767  0.0260
   74DG      C2 1681   0.186   4.734   2.227 -0.3621 -0.3655 -0.0955
   74DG      H3 1682   0.448   5.120   1.731 -1.3704 -1.2171  0.9518
   74DG      H4 1683   0.541   5.038   1.614 -2.2251 -2.2003 -0.0119
   74DG      H5 1684   0.618   5.101   1.760  0.5457  1.5751 -3.2502
   74DG      H6 1685   0.118   4.650   2.224 -0.8354  0.0318 -0.5479
   74DG      H7 1686   0.231   4.738   2.327  0.0931 -2.2066 -0.1985
   74DG      H8 1687   0.133   4.828   2.214 -1.3425 -0.6699  1.4191
   74DG      O9 1688   0.482   4.933   1.784 -0.3135  0.1723  0.4455
   74DG     O10 1689   0.285   4.719   2.130 -0.5203 -0.1736 -0.4783
   74DG     C11 1690   0.590   4.836   1.787 -0.3292 -0.9544  1.0299
   74DG     C12 1691   0.368   4.602   2.143 -0.0628 -0.2017 -1.1801
   74DG     H13 1692   0.656   4.874   1.865  2.0003 -2.7219  0.0428
   74DG     H14 1693   0.650   4.833   1.696 -1.4892 -1.7348  0.2727
   74DG     H15 1694   0.321   4.506   2.161  0.5090 -0.0503  1.5195
   74DG     H16 1695   0.427   4.608   2.234  2.0099 -2.9557 -2.2365
   74DG     C17 1696   0.538   4.700   1.834 -0.3349 -0.2539 -0.5346
   74DG     C18 1697   0.461   4.587   2.020 -0.4474  0.1025  0.4031
   74DG     O19 1698   0.487   4.712   1.962 -0.0988  0.2775  0.1341
   74DG     H20 1699   0.625   4.634   1.824  1.6865  2.0133  0.8150
   74DG     H21 1700   0.457   4.669   1.768 -0.0275  0.5662 -1.3322
   74DG     H22 1701   0.544   4.527   2.056 -2.3219 -2.0835  1.3830
   74DG     H23 1702   0.430   4.521   1.940  3.8625 -2.5967  0.6454
   75DG      C1 1703   3.419   3.035   1.456  0.8020 -0.2454  0.2008
   75DG      C2 1704   3.460   2.737   0.547 -0.4990  1.5501  0.6638
   75DG      H3 1705   3.525   3.053   1.442  1.2660 -1.1315  2.2307
   75DG      H4 1706   3.407   2.940   1.508  1.4840  0.3777  1.5583
   75DG      H5 1707   3.374   3.120   1.508  0.0664  0.0857 -0.9360
   75DG      H6 1708   3.413   2.639   0.553 -0.1953  1.3446 -0.1454
   75DG      H7 1709   3.439   2.779   0.449  1.0680  1.9615  0.4788
   75DG      H8 1710   3.566   2.723   0.567 -0.3567  2.9109  0.9247
   75DG      O9 1711   3.344   3.023   1.335  0.5961  0.0495  0.1647
   75DG     O10 1712   3.402   2.833   0.635  0.4191  0.4908 -0.1123
   75DG     C11 1713   3.403   2.931   1.238  0.0940  0.1637 -0.0614
   75DG     C12 1714   3.446   2.835   0.771 -0.9714  1.0335 -0.2654
   75DG     H13 1715   3.383   2.828   1.267 -1.1648  1.1698  3.1364
   75DG     H14 1716   3.508   2.956   1.224  0.4935 -0.2454  1.8948
   75DG     H15 1717   3.549   2.871   0.779  0.6623 -3.0765 -0.2010
   75DG     H16 1718   3.453   2.735   0.814  0.7621  1.6041  0.8812
   75DG     C17 1719   3.331   2.946   1.103  0.2354 -0.4868 -0.0697
   75DG     C18 1720   3.354   2.902   0.873 -0.9890 -0.1327  0.7126
   75DG     O19 1721   3.412   2.881   1.003 -0.0016 -0.4040 -0.0557
   75DG     H20 1722   3.330   3.053   1.083  0.8807 -0.3338  0.6504
   75DG     H21 1723   3.228   2.911   1.101  0.2109 -0.5672  1.4034
   75DG     H22 1724   3.343   3.006   0.842  0.6284 -0.5879 -1.6651
   75DG     H23 1725   3.255   2.857   0.877 -1.5350  1.0219  0.7071
   76DG      C1 1726   4.308   4.831   3.419  0.1565 -0.1284  0.3866
   76DG      C2 1727   4.485   4.937   2.755  0.5257 -0.1891 -0.2800
   76DG      H3 1728   4.417   4.834   3.421  0.1714  0.7881 -0.6863
   76DG      H4 1729   4.264   4.731   3.421  0.6347 -0.3528 -0.0895
   76DG      H5 1730   4.268   4.886   3.504 -0.7719 -1.7977  1.0757
   76DG      H6 1731   4.477   4.835   2.716  0.1796 -0.6645  0.9856
   76DG      H7 1732   4.478   5.014   2.679 -0.8126  0.5074  0.5249
   76DG      H8 1733   4.581   4.950   2.806  0.2706 -0.0786  0.1764
   76DG      O9 1734   4.264   4.894   3.299  0.2087 -0.0876 -0.0874
   76DG     O10 1735   4.404   4.965   2.869  0.0335  0.5675  0.3132
   76DG     C11 1736   4.122   4.908   3.285  0.1955 -0.1387 -0.0261
   76DG     C12 1737   4.268   4.931   2.826 -0.1195 -0.0185  0.7409
   76DG     H13 1738   4.084   4.968   3.368 -2.9428  0.2368 -1.6033
   76DG     H14 1739   4.076   4.810   3.279  1.1766 -0.6324  0.3134
   76DG     H15 1740   4.263   4.822   2.815 -1.0309  0.0008  0.8661
   76DG     H16 1741   4.248   4.981   2.731  1.1885 -1.0259 -0.1040
   76DG     C17 1742   4.096   4.979   3.151  0.4078  0.1319 -0.1191
   76DG     C18 1743   4.177   4.991   2.930  0.0396 -0.1629  0.0037
   76DG     O19 1744   4.179   4.919   3.049  0.3668 -0.1668 -0.2269
   76DG     H20 1745   4.122   5.084   3.163 -0.3927  0.2447  0.6893
   76DG     H21 1746   3.991   4.984   3.124  0.3938 -1.3286 -0.4126
   76DG     H22 1747   4.200   5.097   2.942 -1.1242  0.0701  0.2314
   76DG     H23 1748   4.080   4.993   2.882  0.9427  0.4297 -1.8849
   77DG      C1 1749   4.874   3.367   0.072 -0.8341  0.5942 -0.0346
   77DG      C2 1750   5.440   3.028   0.174 -0.0820  0.2114 -0.3757
   77DG      H3 1751   4.789   3.406   0.016 -0.1794 -0.7745 -2.1282
   77DG      H4 1752   4.938   3.446   0.109  0.7788 -1.1096  0.9654
   77DG      H5 1753   4.818   3.326   0.156  1.3600 -2.5636  0.0732
   77DG      H6 1754   5.534   3.023   0.118 -0.9982  1.5815 -2.1218
   77DG      H7 1755   5.429   3.121   0.230  0.9476 -0.4467  0.9777
   77DG      H8 1756   5.441   2.944   0.244  1.7755 -2.2204 -3.1006
   77DG      O9 1757   4.965   3.268   0.017 -0.0508 -0.0145 -0.0976
   77DG     O10 1758   5.327   3.032   0.082 -0.5405 -0.5648  0.5145
   77DG     C11 1759   4.894   3.166  -0.056 -0.0309 -0.3722 -0.3898
   77DG     C12 1760   5.288   2.905   0.023  0.2440 -0.7691 -0.5164
   77DG     H13 1761   4.841   3.216  -0.136  1.4483  1.9306 -0.0399
   77DG     H14 1762   4.824   3.121   0.014 -1.1087  0.5025 -0.8762
   77DG     H15 1763   5.252   2.842   0.105 -2.0053  0.9558 -0.0747
   77DG     H16 1764   5.370   2.862  -0.033 -0.9666 -4.1340  0.0358
   77DG     C17 1765   4.989   3.065  -0.134  0.1530  0.2284 -0.4050
   77DG     C18 1766   5.172   2.912  -0.081  0.3585 -0.2037  0.5613
   77DG     O19 1767   5.083   3.013  -0.038 -0.2373  0.1279 -0.1304
   77DG     H20 1768   5.039   3.122  -0.212  0.5398  1.0307  0.4152
   77DG     H21 1769   4.939   2.982  -0.186 -1.0150  1.5388 -1.4712
   77DG     H22 1770   5.220   2.944  -0.174 -0.5141  0.1772  0.2351
   77DG     H23 1771   5.133   2.813  -0.103 -0.5129 -0.3877  2.7003
   78DG      C1 1772   2.943   3.409   3.970  0.3282  0.0119 -0.1709
   78DG      C2 1773   2.804   3.792   4.445 -0.2934  0.3199 -0.0496
   78DG      H3 1774   3.028   3.359   3.922  0.5006 -1.0379  1.1639
   78DG      H4 1775   2.958   3.517   3.976 -1.6607  0.2714  0.8099
   78DG      H5 1776   2.855   3.380   3.914  0.3473  0.1952 -0.2983
   78DG      H6 1777   2.870   3.838   4.520 -0.1401  1.0267 -0.6053
   78DG      H7 1778   2.795   3.859   4.360 -0.6113  2.0946  1.3019
   78DG      H8 1779   2.703   3.788   4.484 -0.5758  0.3470 -0.7803
   78DG      O9 1780   2.948   3.373   4.111  0.8975 -0.3994  0.0785
   78DG     O10 1781   2.841   3.663   4.403 -0.1023 -0.0225  0.4975
   78DG     C11 1782   3.072   3.411   4.174  0.3540  0.2021 -0.4353
   78DG     C12 1783   2.840   3.569   4.509 -0.1728  0.1769 -0.4974
   78DG     H13 1784   3.091   3.518   4.170  0.9941  0.1090 -0.0088
   78DG     H14 1785   3.158   3.365   4.125  0.8834  1.1389 -0.3959
   78DG     H15 1786   2.740   3.555   4.552 -0.3087  0.2671 -0.7807
   78DG     H16 1787   2.903   3.606   4.589  0.3624  0.4006 -1.0100
   78DG     C17 1788   3.079   3.367   4.317 -0.9694 -0.0056  0.2601
   78DG     C18 1789   2.898   3.436   4.456  0.0082 -0.5968  0.3388
   78DG     O19 1790   3.022   3.468   4.396  0.4590 -0.4566 -0.4448
   78DG     H20 1791   3.185   3.369   4.342 -1.3307 -1.4681  2.1728
   78DG     H21 1792   3.051   3.264   4.341  0.9112 -0.8563 -0.9454
   78DG     H22 1793   2.922   3.385   4.549  2.2921  0.8314  0.6230
   78DG     H23 1794   2.824   3.385   4.394 -0.5116  0.1863  0.2967
   79DG      C1 1795   3.589   1.392   2.390  0.1157 -0.7800  0.0348
   79DG      C2 1796   3.560   1.237   1.752  0.1918 -0.0084  0.2377
   79DG      H3 1797   3.693   1.386   2.421  0.3539  0.6536 -0.3828
   79DG      H4 1798   3.551   1.290   2.393 -0.3905 -0.5835  0.3148
   79DG      H5 1799   3.525   1.439   2.464  0.9428 -0.7282  0.7245
   79DG      H6 1800   3.472   1.174   1.738 -1.5659  1.8231  2.1842
   79DG      H7 1801   3.592   1.265   1.652 -0.6476 -0.8398 -0.2767
   79DG      H8 1802   3.635   1.186   1.812 -1.1815 -1.6592  0.6253
   79DG      O9 1803   3.592   1.447   2.259  0.4272 -0.1341  0.2078
   79DG     O10 1804   3.511   1.344   1.827  0.0391  0.0380 -0.3684
   79DG     C11 1805   3.664   1.569   2.255 -0.1614  0.2400  0.5132
   79DG     C12 1806   3.584   1.468   1.795  0.1609 -0.4793 -0.5115
   79DG     H13 1807   3.769   1.568   2.283 -0.0848  4.1312  0.8858
   79DG     H14 1808   3.622   1.638   2.327 -1.5965  2.0076 -1.8488
   79DG     H15 1809   3.571   1.506   1.694 -1.5016  0.5108  0.0301
   79DG     H16 1810   3.688   1.437   1.807  0.1797 -0.1436  0.2902
   79DG     C17 1811   3.653   1.638   2.118  0.8244  0.1728 -0.0398
   79DG     C18 1812   3.566   1.584   1.902 -0.0544  0.2170 -0.3639
   79DG     O19 1813   3.617   1.528   2.024  0.3519  0.6295 -0.3713
   79DG     H20 1814   3.744   1.686   2.082  1.4670 -0.1346  1.1451
   79DG     H21 1815   3.571   1.710   2.119  0.9926  0.3683 -0.3513
   79DG     H22 1816   3.608   1.678   1.867  0.0695  0.6746  0.9440
   79DG     H23 1817   3.458   1.597   1.913 -0.1077  0.0790 -0.7128
   80DG      C1 1818   2.411   3.593   3.258 -0.5470 -0.0044 -0.0962
   80DG      C2 1819   2.382   4.168   3.018 -0.0472 -0.6645  0.4519
   80DG      H3 1820   2.518   3.586   3.275 -0.3839  1.6720 -0.3149
   80DG      H4 1821   2.377   3.503   3.309  1.5156 -1.0108 -0.4192
   80DG      H5 1822   2.376   3.675   3.322  0.7753 -0.5292  1.3804
   80DG      H6 1823   2.476   4.163   3.072  0.0276 -0.4799  0.3414
   80DG      H7 1824   2.387   4.248   2.943 -0.1749 -2.1346 -1.1939
   80DG      H8 1825   2.309   4.197   3.093  2.4915  1.2365  2.3727
   80DG      O9 1826   2.373   3.619   3.125  0.3762 -0.1394 -0.2753
   80DG     O10 1827   2.362   4.048   2.953 -0.4652  0.0363  0.2841
   80DG     C11 1828   2.240   3.604   3.091  0.2907  0.4020  0.3157
   80DG     C12 1829   2.237   4.028   2.895  0.1088  0.0715 -0.2087
   80DG     H13 1830   2.182   3.632   3.179  0.4606  0.7207  0.3286
   80DG     H14 1831   2.220   3.497   3.079  2.2111  0.0434 -0.1330
   80DG     H15 1832   2.230   4.094   2.808  2.8225 -1.3644 -1.6349
   80DG     H16 1833   2.161   4.046   2.971  1.7345 -0.4913  1.6156
   80DG     C17 1834   2.199   3.663   2.958 -0.9344  0.0440  0.0091
   80DG     C18 1835   2.235   3.883   2.854  0.9774  0.2433 -0.3558
   80DG     O19 1836   2.239   3.799   2.968  0.0133  0.4670 -0.6217
   80DG     H20 1837   2.094   3.650   2.931 -0.5899 -2.0094 -0.4979
   80DG     H21 1838   2.252   3.621   2.872 -2.2628 -1.7428  0.0218
   80DG     H22 1839   2.142   3.866   2.800  0.3213 -0.8046  1.0648
   80DG     H23 1840   2.327   3.882   2.795  1.8173 -1.5295  0.8904
   81DG      C1 1841   3.997   0.100   5.283  1.0256 -0.3571 -0.2776
   81DG      C2 1842   3.405   0.300   5.123  0.6879  0.4867 -0.4599
   81DG      H3 1843   3.982   0.090   5.176 -2.3807 -0.6217  0.1105
   81DG      H4 1844   3.943   0.015   5.323 -1.5359  1.5194  0.5307
   81DG      H5 1845   4.101   0.097   5.315  1.1282  0.3440 -0.5232
   81DG      H6 1846   3.353   0.351   5.204  0.7852  0.8941 -0.6523
   81DG      H7 1847   3.353   0.321   5.030  0.1951 -0.7447 -0.4779
   81DG      H8 1848   3.380   0.195   5.143  1.3558  0.2929 -0.6216
   81DG      O9 1849   3.930   0.217   5.334  0.6656  0.0643  0.4692
   81DG     O10 1850   3.544   0.330   5.123 -0.2665 -0.2855 -0.1731
   81DG     C11 1851   3.994   0.338   5.289  0.0171  0.2261  0.0430
   81DG     C12 1852   3.581   0.451   5.059  1.1539  0.0360  0.4464
   81DG     H13 1853   4.099   0.320   5.263 -0.1766 -0.6106 -0.2040
   81DG     H14 1854   3.985   0.408   5.371 -0.7709  0.4755 -0.2526
   81DG     H15 1855   3.545   0.537   5.115 -2.8690 -2.3666  1.9801
   81DG     H16 1856   3.553   0.458   4.954  1.8646 -1.6578  0.1132
   81DG     C17 1857   3.938   0.392   5.166  0.6179 -0.4371 -0.5464
   81DG     C18 1858   3.736   0.455   5.047  0.1341 -0.0684 -0.4559
   81DG     O19 1859   3.792   0.415   5.168 -0.6260 -0.2641  0.1017
   81DG     H20 1860   3.958   0.333   5.077  0.0780  0.0359 -0.9869
   81DG     H21 1861   3.984   0.483   5.127  0.7659 -1.2259 -2.3083
   81DG     H22 1862   3.760   0.396   4.959 -0.7168  1.2369 -1.6155
   81DG     H23 1863   3.785   0.549   5.020 -0.4793  0.6490  0.8071
   82DG      C1 1864   5.070   4.877   1.321  0.1811 -0.0767 -0.4502
   82DG      C2 1865   4.883   5.162   0.704 -0.6815  0.6255 -1.0034
   82DG      H3 1866   5.004   4.896   1.405  1.4592 -1.5856  0.9664
   82DG      H4 1867   5.155   4.942   1.341  0.8880 -0.6030 -1.6408
   82DG      H5 1868   5.112   4.776   1.324 -1.8451 -1.1243 -3.3296
   82DG      H6 1869   4.930   5.063   0.695  0.9579  1.4070 -1.5760
   82DG      H7 1870   4.800   5.176   0.635  0.3686  0.1736 -2.4321
   82DG      H8 1871   4.949   5.246   0.683  2.2883 -1.4189 -0.5362
   82DG      O9 1872   5.012   4.901   1.200  0.9754 -0.5740 -0.2285
   82DG     O10 1873   4.847   5.171   0.835  0.8889  0.1278 -0.1332
   82DG     C11 1874   4.890   4.830   1.192 -0.2012  0.7825  0.2908
   82DG     C12 1875   4.736   5.088   0.860  0.7037 -0.2706 -0.7739
   82DG     H13 1876   4.826   4.845   1.278  1.5126 -0.3954  1.8381
   82DG     H14 1877   4.911   4.723   1.188  1.0390  0.9015  2.5934
   82DG     H15 1878   4.752   4.990   0.814  1.2405  0.3267 -1.9136
   82DG     H16 1879   4.646   5.122   0.808 -2.2103  0.5935  4.1281
   82DG     C17 1880   4.820   4.884   1.068 -0.2328  0.2046  0.0247
   82DG     C18 1881   4.703   5.083   1.012  0.1158  0.2971 -0.3256
   82DG     O19 1882   4.813   5.023   1.078 -0.6059 -0.2768  0.2263
   82DG     H20 1883   4.717   4.853   1.087 -0.0203 -0.4144  0.1655
   82DG     H21 1884   4.855   4.845   0.973 -1.2995 -2.4662  0.6346
   82DG     H22 1885   4.694   5.188   1.040  0.9475  0.0120  1.0667
   82DG     H23 1886   4.602   5.047   1.035  0.7994 -0.6981  1.2462
   83DG      C1 1887   2.475   3.248   2.935 -0.0091  0.1605  1.1189
   83DG      C2 1888   2.642   3.657   3.638 -0.3760 -0.4948 -0.6171
   83DG      H3 1889   2.437   3.151   2.903  1.9895 -0.7067  1.2013
   83DG      H4 1890   2.542   3.278   2.854 -1.9418 -2.6542 -1.8019
   83DG      H5 1891   2.394   3.320   2.943  2.0335  2.8687 -0.6409
   83DG      H6 1892   2.703   3.728   3.582  0.1894  0.7270  1.4229
   83DG      H7 1893   2.561   3.714   3.684  1.1919 -0.2308  2.0237
   83DG      H8 1894   2.699   3.628   3.726 -1.7672  0.7811  0.7645
   83DG      O9 1895   2.548   3.251   3.058 -0.2522  0.2697 -0.1444
   83DG     O10 1896   2.606   3.549   3.550  0.0063 -0.1519 -0.8402
   83DG     C11 1897   2.464   3.219   3.169  0.7033 -0.2000  0.4407
   83DG     C12 1898   2.723   3.482   3.495  0.4499 -0.3146 -0.4598
   83DG     H13 1899   2.421   3.120   3.160 -0.4211  0.0515  2.3741
   83DG     H14 1900   2.388   3.297   3.172  1.3036  0.3842  1.6389
   83DG     H15 1901   2.796   3.471   3.575 -2.4715 -0.2712  2.4030
   83DG     H16 1902   2.768   3.556   3.429 -0.8309 -0.8259 -1.9804
   83DG     C17 1903   2.548   3.218   3.298  0.2632  0.0099  0.3058
   83DG     C18 1904   2.700   3.349   3.427  0.2443  0.1520 -0.2164
   83DG     O19 1905   2.585   3.348   3.339 -0.0949  0.0631 -0.2462
   83DG     H20 1906   2.634   3.153   3.281 -0.4817 -0.8694 -0.1959
   83DG     H21 1907   2.495   3.171   3.380  0.7623 -1.0848  0.0206
   83DG     H22 1908   2.791   3.332   3.370  0.4342  2.2071 -0.6024
   83DG     H23 1909   2.692   3.268   3.500 -3.8626  0.8223  0.3537
   84DG      C1 1910   2.511   4.678   1.611 -0.4226  0.1832  0.0355
   84DG      C2 1911   2.482   4.579   2.278 -0.2847 -0.3222  0.1599
   84DG      H3 1912   2.590   4.602   1.618  2.8479  3.1639 -1.5646
   84DG      H4 1913   2.555   4.777   1.613 -0.2210  0.1747 -2.1127
   84DG      H5 1914   2.448   4.679   1.522  0.8523  0.1530 -0.8926
   84DG      H6 1915   2.432   4.487   2.310 -1.2608 -0.7010 -2.1920
   84DG      H7 1916   2.587   4.568   2.253 -0.5846 -1.0815 -0.8326
   84DG      H8 1917   2.490   4.663   2.346  0.3381 -1.1008  1.0732
   84DG      O9 1918   2.427   4.664   1.721 -0.5851  0.1740  0.3806
   84DG     O10 1919   2.414   4.616   2.158 -0.2260  0.2272 -0.3529
   84DG     C11 1920   2.307   4.744   1.719  0.2965  0.0629  0.0893
   84DG     C12 1921   2.275   4.618   2.169  0.1070  0.5760 -0.4917
   84DG     H13 1922   2.259   4.759   1.622 -0.7434  2.6582  0.9265
   84DG     H14 1923   2.327   4.844   1.759  1.9209 -0.1444 -0.1228
   84DG     H15 1924   2.240   4.709   2.219  1.3545 -0.0042  1.5811
   84DG     H16 1925   2.238   4.542   2.238  1.1908  1.6922  1.4175
   84DG     C17 1926   2.212   4.675   1.819 -0.1722  0.3699  0.2038
   84DG     C18 1927   2.206   4.609   2.033  0.0497  0.1432  0.4481
   84DG     O19 1928   2.283   4.671   1.940 -0.2495  0.0437 -0.4865
   84DG     H20 1929   2.190   4.575   1.783 -1.5009 -0.6375  3.4417
   84DG     H21 1930   2.115   4.724   1.832 -0.0408  0.6064  0.3050
   84DG     H22 1931   2.198   4.507   1.995  0.4023  0.5625 -0.8147
   84DG     H23 1932   2.107   4.655   2.037  0.4165  1.1791 -1.1714
   85DG      C1 1933   1.669   5.271   3.707  0.1672 -0.2255 -0.6784
   85DG      C2 1934   1.061   5.003   3.551  0.1500 -1.0076 -0.0412
   85DG      H3 1935   1.715   5.273   3.608  0.6246  0.3932 -0.4627
   85DG      H4 1936   1.665   5.167   3.738 -0.5657  0.1800  0.6825
   85DG      H5 1937   1.729   5.333   3.774 -1.2595  0.1930  0.2729
   85DG      H6 1938   0.952   5.014   3.552  0.2134 -0.1139 -0.9816
   85DG      H7 1939   1.078   4.984   3.445 -0.3315 -0.0562 -0.3020
   85DG      H8 1940   1.080   4.910   3.605  1.5829 -0.9199 -0.3643
   85DG      O9 1941   1.531   5.308   3.688  0.2971  0.2671 -0.3269
   85DG     O10 1942   1.122   5.120   3.595 -0.6975  0.2931 -0.5975
   85DG     C11 1943   1.497   5.441   3.646  0.2932  0.3166  0.4281
   85DG     C12 1944   1.103   5.233   3.508  0.0817 -0.1142 -0.0888
   85DG     H13 1945   1.531   5.458   3.544  0.9283  1.7422  0.8485
   85DG     H14 1946   1.548   5.512   3.712  1.6794 -0.9537  0.7798
   85DG     H15 1947   0.997   5.248   3.488  0.2529  1.7440  0.1954
   85DG     H16 1948   1.164   5.219   3.419 -1.4018  0.8931 -1.3258
   85DG     C17 1949   1.346   5.472   3.640 -1.0410  0.9603  0.0367
   85DG     C18 1950   1.150   5.371   3.563 -0.2417 -0.2545 -0.8092
   85DG     O19 1951   1.289   5.357   3.583 -0.4819 -0.3252  0.4453
   85DG     H20 1952   1.330   5.547   3.562 -3.8374  2.1996  1.6648
   85DG     H21 1953   1.294   5.517   3.724  1.2397 -0.4730  2.3750
   85DG     H22 1954   1.132   5.442   3.483  0.6512  0.4046 -0.4440
   85DG     H23 1955   1.102   5.409   3.654 -2.6849  2.0178 -2.8773
   86DG      C1 1956   0.542   0.436   4.841 -0.2684  0.0546  0.1289
   86DG      C2 1957  -0.169   0.728   4.673 -0.0591 -0.4767  0.6051
   86DG      H3 1958   0.610   0.390   4.912  0.1338 -1.7887 -1.3702
   86DG      H4 1959   0.597   0.506   4.779 -0.7186  0.2101 -0.0996
   86DG      H5 1960   0.505   0.363   4.769 -2.1096  1.1987 -0.1576
   86DG      H6 1961  -0.219   0.752   4.579  2.3253  0.4553 -0.5190
   86DG      H7 1962  -0.210   0.634   4.710 -1.8982  0.5778  1.3590
   86DG      H8 1963  -0.213   0.797   4.744 -1.7107  0.4502 -1.2501
   86DG      O9 1964   0.440   0.516   4.890  0.4400 -0.0750  0.0700
   86DG     O10 1965  -0.024   0.748   4.663  0.4830  0.4602 -0.6092
   86DG     C11 1966   0.359   0.456   4.988 -0.5539  0.1775 -0.9267
   86DG     C12 1967   0.043   0.633   4.697 -0.0115 -0.2466  0.3109
   86DG     H13 1968   0.412   0.449   5.082  0.0159  0.6668 -1.2082
   86DG     H14 1969   0.339   0.349   4.977 -3.8175  0.2854  2.1037
   86DG     H15 1970   0.141   0.652   4.653 -0.9236 -1.5059 -2.4335
   86DG     H16 1971   0.005   0.551   4.637  0.7274  1.4806 -2.6911
   86DG     C17 1972   0.237   0.537   4.992  0.3849 -0.8815  0.1459
   86DG     C18 1973   0.055   0.611   4.850 -0.1043 -0.1083  0.3031
   86DG     O19 1974   0.162   0.519   4.869 -0.1341 -0.6051  0.2289
   86DG     H20 1975   0.263   0.641   5.013  0.3989 -0.6441 -0.9616
   86DG     H21 1976   0.173   0.503   5.073 -1.2673 -0.3726 -0.9053
   86DG     H22 1977   0.072   0.711   4.891 -0.4599  0.4347 -0.8520
   86DG     H23 1978  -0.030   0.565   4.900  0.8345 -1.7867  0.4215
   87DG      C1 1979   5.204   2.631   3.521  0.7446  0.4085 -0.0731
   87DG      C2 1980   4.593   2.886   3.433 -0.0949 -0.1019 -0.4971
   87DG      H3 1981   5.163   2.531   3.537  0.7696  0.3913 -0.1137
   87DG      H4 1982   5.311   2.632   3.544  1.9331  0.6382 -4.5565
   87DG      H5 1983   5.200   2.656   3.415 -2.0124 -1.3814 -0.5020
   87DG      H6 1984   4.580   2.779   3.448  0.5057 -0.2156 -0.7530
   87DG      H7 1985   4.508   2.948   3.460  0.4371 -0.0327  1.1589
   87DG      H8 1986   4.630   2.910   3.333  0.3296 -0.2341 -0.3728
   87DG      O9 1987   5.129   2.731   3.584 -0.5245 -0.4336 -0.3874
   87DG     O10 1988   4.688   2.915   3.533  0.4079  1.0642 -0.3435
   87DG     C11 1989   5.189   2.865   3.571  0.2291  0.3688  0.2019
   87DG     C12 1990   4.753   3.039   3.518 -0.0129  0.5872 -0.5190
   87DG     H13 1991   5.202   2.878   3.464  0.1730  4.3756  0.5537
   87DG     H14 1992   5.280   2.879   3.630 -0.0190  1.8166  0.2609
   87DG     H15 1993   4.670   3.108   3.536 -0.9567 -0.7277  0.4052
   87DG     H16 1994   4.782   3.049   3.414 -2.0391  0.2725 -1.1755
   87DG     C17 1995   5.101   2.973   3.626 -0.7862 -0.1867 -0.8331
   87DG     C18 1996   4.876   3.064   3.604  0.7167 -0.3127 -0.6610
   87DG     O19 1997   4.969   2.957   3.579  0.5866  0.0662  0.2309
   87DG     H20 1998   5.140   3.069   3.590 -0.4837  0.2936  0.7156
   87DG     H21 1999   5.108   2.985   3.734 -1.4436  0.0628 -0.8158
   87DG     H22 2000   4.908   3.167   3.586 -0.3538  0.1259 -0.0970
   87DG     H23 2001   4.851   3.051   3.709 -0.4966  3.2126 -0.3959
   88DG      C1 2002   5.042   4.452   1.373  0.6557  0.5449  0.2903
   88DG      C2 2003   4.968   4.548   0.685 -0.3448  0.6593  0.4775
   88DG      H3 2004   5.072   4.367   1.434  1.0836  0.4450 -0.0514
   88DG      H4 2005   5.068   4.542   1.428 -1.2997  0.3571  1.6220
   88DG      H5 2006   5.100   4.467   1.281 -2.7378  1.2856 -1.9027
   88DG      H6 2007   4.969   4.656   0.701  0.6293  0.5950  0.8714
   88DG      H7 2008   5.072   4.516   0.695 -0.7414 -0.1424  2.6401
   88DG      H8 2009   4.928   4.520   0.587 -1.3112  2.3065  0.3733
   88DG      O9 2010   4.907   4.463   1.317  0.1573  0.3179  0.4329
   88DG     O10 2011   4.905   4.474   0.794 -0.3458 -0.0002  0.4358
   88DG     C11 2012   4.839   4.343   1.283  1.0934  0.0491  0.3577
   88DG     C12 2013   4.795   4.545   0.855  0.6313  0.3530 -1.4668
   88DG     H13 2014   4.786   4.293   1.364  2.7926 -0.2364  1.3427
   88DG     H14 2015   4.911   4.275   1.238  0.7026 -0.0502 -0.1300
   88DG     H15 2016   4.731   4.560   0.768  0.0764 -1.9464 -1.5185
   88DG     H16 2017   4.835   4.632   0.907  1.2503 -0.7249 -0.0666
   88DG     C17 2018   4.731   4.380   1.173 -0.4173  0.5650 -0.3913
   88DG     C18 2019   4.725   4.454   0.960  0.7953 -0.7643 -0.0574
   88DG     O19 2020   4.805   4.431   1.069 -0.7080  0.3905 -0.5474
   88DG     H20 2021   4.663   4.454   1.215 -1.5994 -0.5129 -0.3623
   88DG     H21 2022   4.667   4.296   1.148  0.2013  0.4632 -1.7095
   88DG     H22 2023   4.633   4.498   0.999  1.2512 -1.7444  2.3095
   88DG     H23 2024   4.696   4.366   0.904  1.3458  1.9614 -5.2410
   89DG      C1 2025   0.720   4.045   2.472 -0.3195  0.0299  0.1174
   89DG      C2 2026   1.402   4.160   2.746  0.7218  0.1723 -0.1111
   89DG      H3 2027   0.722   3.944   2.513  0.9300  0.5722  1.4665
   89DG      H4 2028   0.758   4.053   2.370  0.0037 -1.6958  0.0710
   89DG      H5 2029   0.616   4.077   2.467 -1.1783 -2.6045 -1.0798
   89DG      H6 2030   1.419   4.160   2.638  0.4794 -1.8094 -0.1877
   89DG      H7 2031   1.470   4.232   2.792  1.4220 -0.8839  0.5719
   89DG      H8 2032   1.423   4.060   2.784 -1.3789 -0.1797  0.2549
   89DG      O9 2033   0.791   4.130   2.558 -0.1830 -0.6148 -0.2330
   89DG     O10 2034   1.266   4.178   2.776  0.4388  0.3530  0.0082
   89DG     C11 2035   0.764   4.121   2.695  0.2083 -0.3930 -1.4486
   89DG     C12 2036   1.215   4.292   2.714  0.0125  0.1352  0.1776
   89DG     H13 2037   0.776   4.021   2.738  2.1881  0.5966  0.5063
   89DG     H14 2038   0.660   4.152   2.712  0.5137  0.3087 -0.7997
   89DG     H15 2039   1.206   4.271   2.608  3.0380 -0.7591 -0.0135
   89DG     H16 2040   1.287   4.374   2.717  0.8683 -0.2286 -4.0365
   89DG     C17 2041   0.861   4.212   2.763 -0.0256 -0.0419 -0.5084
   89DG     C18 2042   1.069   4.316   2.764  0.6468  0.2429  0.4693
   89DG     O19 2043   0.999   4.204   2.738  0.4200  0.0135  0.2451
   89DG     H20 2044   0.858   4.194   2.870 -1.1588 -1.0497 -0.6895
   89DG     H21 2045   0.828   4.316   2.764 -1.2987 -0.4346 -0.4306
   89DG     H22 2046   1.072   4.340   2.871  1.2117 -0.3039  0.5805
   89DG     H23 2047   1.033   4.397   2.701 -0.8227 -0.4183  0.4171
   90DG      C1 2048   3.162   1.845   2.220 -0.0717 -0.5124 -0.1690
   90DG      C2 2049   2.702   1.769   1.725 -0.0235  0.7378 -0.0569
   90DG      H3 2050   3.217   1.754   2.196  1.0215 -0.8886  3.2225
   90DG      H4 2051   3.174   1.854   2.328  1.2548  0.1543 -0.3544
   90DG      H5 2052   3.218   1.928   2.176  0.8857 -2.3112 -2.5765
   90DG      H6 2053   2.722   1.664   1.742 -1.5226  0.3657 -0.4330
   90DG      H7 2054   2.614   1.774   1.661 -1.2214  1.1057  1.5627
   90DG      H8 2055   2.778   1.801   1.653 -0.2598  0.1231 -0.5941
   90DG      O9 2056   3.021   1.835   2.189  0.0475  0.2395 -0.1113
   90DG     O10 2057   2.696   1.845   1.841  0.0063  0.2324  0.2457
   90DG     C11 2058   2.947   1.954   2.237  0.1510  0.4245 -0.1333
   90DG     C12 2059   2.598   1.803   1.934  0.3827  0.4938 -0.7850
   90DG     H13 2060   3.008   2.034   2.194  0.1146  0.6336  0.1932
   90DG     H14 2061   2.958   1.965   2.345 -0.9142 -1.1543  0.1551
   90DG     H15 2062   2.599   1.695   1.945  0.5842  0.5708  0.0321
   90DG     H16 2063   2.501   1.824   1.888 -0.9123  0.7847  1.8751
   90DG     C17 2064   2.796   1.968   2.192  0.9264  0.1019  0.0549
   90DG     C18 2065   2.613   1.871   2.066 -0.4116  0.2682 -0.1291
   90DG     O19 2066   2.751   1.865   2.103 -0.3504 -0.2978 -0.8753
   90DG     H20 2067   2.785   2.062   2.139  0.8428 -0.2750 -0.5986
   90DG     H21 2068   2.729   1.978   2.278  0.3230  1.7256 -0.5586
   90DG     H22 2069   2.590   1.976   2.045  1.6726  0.8171  0.1527
   90DG     H23 2070   2.547   1.844   2.149  2.9106 -1.4694  2.1588
   91DG      C1 2071   5.145   4.873   3.122 -0.6186  0.7101  0.0709
   91DG      C2 2072   5.266   5.308   2.701 -0.6854 -0.9446 -0.0271
   91DG      H3 2073   5.097   4.785   3.165  2.3503 -1.9745 -1.5950
   91DG      H4 2074   5.166   4.956   3.190 -0.1967  0.7517 -0.1063
   91DG      H5 2075   5.242   4.839   3.085 -0.3794  2.1711 -0.7192
   91DG      H6 2076   5.255   5.365   2.608  0.5147 -1.2524 -0.3699
   91DG      H7 2077   5.271   5.387   2.776  0.5921  2.2324 -3.1490
   91DG      H8 2078   5.356   5.250   2.682  0.0397 -0.2186  1.0741
   91DG      O9 2079   5.081   4.918   3.003 -0.3457  0.2167 -0.2733
   91DG     O10 2080   5.152   5.221   2.712  0.6293  0.2758  0.5213
   91DG     C11 2081   4.942   4.952   3.026  0.3826 -0.2634 -0.3410
   91DG     C12 2082   5.031   5.289   2.719  0.3362  0.0303 -0.1604
   91DG     H13 2083   4.942   5.031   3.100  2.3038  0.1648 -0.7374
   91DG     H14 2084   4.881   4.867   3.056 -0.2454 -0.1407 -1.2395
   91DG     H15 2085   5.005   5.346   2.629 -1.0450  0.7881  0.6816
   91DG     H16 2086   5.043   5.352   2.807 -1.5359  0.5544 -0.2342
   91DG     C17 2087   4.873   5.029   2.913  0.6203  1.0991 -0.6364
   91DG     C18 2088   4.931   5.187   2.743  0.4728 -0.0021  0.4922
   91DG     O19 2089   4.967   5.113   2.862 -0.1243  0.2923 -0.1848
   91DG     H20 2090   4.792   5.084   2.961  0.2339  0.9534 -1.1083
   91DG     H21 2091   4.825   4.965   2.839  1.5369  0.1545 -0.4430
   91DG     H22 2092   4.831   5.229   2.758  0.2166 -0.3894 -0.1104
   91DG     H23 2093   4.925   5.123   2.655 -0.7723  0.4781  0.2096
   92DG      C1 2094   3.635   5.435   2.289 -0.6758 -0.7985 -0.6847
   92DG      C2 2095   3.136   5.650   2.721  0.5377  0.1237 -0.0153
   92DG      H3 2096   3.678   5.419   2.389  1.7259  1.7708 -1.1688
   92DG      H4 2097   3.713   5.494   2.241  1.0415 -3.0902 -0.8619
   92DG      H5 2098   3.620   5.342   2.236 -0.2925 -1.8724  0.9919
   92DG      H6 2099   3.108   5.752   2.748  2.0673  0.8168 -0.9168
   92DG      H7 2100   3.051   5.582   2.726  0.8405 -0.2102  0.7142
   92DG      H8 2101   3.215   5.628   2.792 -0.9708  0.5372  1.8875
   92DG      O9 2102   3.512   5.508   2.307 -0.4865 -0.0560 -0.5555
   92DG     O10 2103   3.191   5.636   2.586 -0.1991 -0.2392 -0.2287
   92DG     C11 2104   3.479   5.593   2.204 -0.3545 -0.0841 -0.5405
   92DG     C12 2105   3.099   5.698   2.489  0.1104 -0.9608  0.4543
   92DG     H13 2106   3.434   5.528   2.129  2.0233 -1.4443 -0.8975
   92DG     H14 2107   3.559   5.644   2.150  0.0204  0.5606  0.6045
   92DG     H15 2108   3.031   5.774   2.527  0.4439 -1.2355  1.6528
   92DG     H16 2109   3.035   5.623   2.444  1.4693 -3.0971  1.8610
   92DG     C17 2110   3.390   5.711   2.260 -0.1443 -0.3570  1.5713
   92DG     C18 2111   3.183   5.753   2.374 -0.4245 -0.2254 -0.3840
   92DG     O19 2112   3.272   5.657   2.320  0.3293  0.2764 -0.0759
   92DG     H20 2113   3.367   5.782   2.180  1.3275 -0.1925  1.2801
   92DG     H21 2114   3.458   5.753   2.333  1.3817 -1.7034  0.9711
   92DG     H22 2115   3.120   5.775   2.288 -0.2778 -1.6911 -0.8876
   92DG     H23 2116   3.223   5.851   2.402  1.5358 -0.1333 -3.0599
   93DG      C1 2117   0.078   4.043   1.557 -0.3477 -0.2721  0.2855
   93DG      C2 2118  -0.633   3.980   1.596 -0.3521 -0.3972 -0.4240
   93DG      H3 2119   0.069   3.942   1.596  0.7498 -0.1910  0.7738
   93DG      H4 2120   0.148   4.100   1.618  1.3681 -1.7856 -0.1880
   93DG      H5 2121   0.117   4.046   1.455 -1.7254  0.2758 -0.2608
   93DG      H6 2122  -0.720   3.999   1.659 -1.5601  0.4255 -2.2466
   93DG      H7 2123  -0.663   3.964   1.493  2.5174 -1.8463 -1.1342
   93DG      H8 2124  -0.595   3.891   1.647  0.6919  0.2981  0.0335
   93DG      O9 2125  -0.040   4.119   1.562 -0.7829  0.5724  0.4463
   93DG     O10 2126  -0.537   4.086   1.621 -0.1012  0.0001  0.0867
   93DG     C11 2127  -0.105   4.134   1.682  0.5854 -0.3917 -0.2537
   93DG     C12 2128  -0.561   4.163   1.740  0.0873 -0.1823  0.1350
   93DG     H13 2129  -0.060   4.208   1.748 -2.4082  0.5777  0.9030
   93DG     H14 2130  -0.120   4.041   1.736 -0.8982 -0.5818 -0.9315
   93DG     H15 2131  -0.572   4.096   1.825 -0.9624 -1.0651 -0.6674
   93DG     H16 2132  -0.660   4.207   1.735  0.6700  1.1331 -0.1297
   93DG     C17 2133  -0.252   4.190   1.659  0.1994 -0.1547  0.0968
   93DG     C18 2134  -0.450   4.265   1.770 -0.0386  0.2091  0.3176
   93DG     O19 2135  -0.327   4.197   1.782  0.2860 -0.4808 -0.0884
   93DG     H20 2136  -0.296   4.120   1.587 -0.7739 -0.6068  1.1035
   93DG     H21 2137  -0.231   4.281   1.602 -1.1915  1.2694  1.7645
   93DG     H22 2138  -0.451   4.345   1.696  1.9410 -0.3825 -0.4066
   93DG     H23 2139  -0.485   4.307   1.864 -0.8869 -1.5755  0.8467
   94DG      C1 2140   2.100   0.941   2.719  0.3645  0.1159 -0.6321
   94DG      C2 2141   1.637   1.102   2.372  0.0857  0.1325 -0.1500
   94DG      H3 2142   2.179   0.895   2.777  0.1588  0.5869  0.0238
   94DG      H4 2143   2.141   1.037   2.689  1.2310  0.3086  1.0772
   94DG      H5 2144   2.085   0.880   2.629  2.9662  0.0993 -1.1185
   94DG      H6 2145   1.572   1.042   2.306  2.4009 -2.7044 -0.0563
   94DG      H7 2146   1.580   1.189   2.404 -3.4512 -1.6901 -0.8737
   94DG      H8 2147   1.721   1.140   2.315 -0.6779  0.4206 -1.1160
   94DG      O9 2148   1.986   0.976   2.794  0.1890 -0.3943  0.2789
   94DG     O10 2149   1.687   1.030   2.478  0.1385  0.1468  0.4536
   94DG     C11 2150   1.929   0.866   2.868  0.3166  0.2713 -0.4780
   94DG     C12 2151   1.579   0.963   2.547 -0.3495  1.0828 -0.4473
   94DG     H13 2152   1.912   0.893   2.972 -0.1806 -1.1048 -0.1820
   94DG     H14 2153   1.999   0.782   2.864 -2.4593 -2.1916 -0.2514
   94DG     H15 2154   1.485   0.944   2.497 -1.0846  3.7641 -0.2323
   94DG     H16 2155   1.536   1.035   2.616 -0.2480 -0.7698  1.6824
   94DG     C17 2156   1.804   0.812   2.798  0.2802  0.2036  0.3850
   94DG     C18 2157   1.638   0.844   2.638  0.2689 -0.7246  0.1246
   94DG     O19 2158   1.733   0.911   2.725  0.0632 -0.2795  0.2130
   94DG     H20 2159   1.736   0.770   2.873 -0.8862  0.6308 -0.3997
   94DG     H21 2160   1.831   0.728   2.735  0.1905  0.0566  0.5404
   94DG     H22 2161   1.555   0.809   2.700  0.5736  0.3745  1.2046
   94DG     H23 2162   1.686   0.763   2.583 -1.9906 -1.4478 -0.9147
   95DG      C1 2163   2.492   0.684   0.996 -0.2693 -0.1483 -0.2368
   95DG      C2 2164   2.853   0.587   0.498 -0.0996  0.4921  0.0253
   95DG      H3 2165   2.435   0.725   1.078  1.0680  0.5672  0.3684
   95DG      H4 2166   2.550   0.606   1.044 -0.1371 -0.2520 -0.5600
   95DG      H5 2167   2.425   0.642   0.921  1.0311  0.0322 -1.5550
   95DG      H6 2168   2.836   0.504   0.566 -1.2709  0.6827 -0.0230
   95DG      H7 2169   2.842   0.553   0.394  1.3309 -0.1994  0.0751
   95DG      H8 2170   2.955   0.621   0.512  0.0372 -0.3155  1.0953
   95DG      O9 2171   2.587   0.791   0.964  0.1686 -0.3624  0.2114
   95DG     O10 2172   2.754   0.677   0.531 -0.2728 -0.7667  0.0287
   95DG     C11 2173   2.524   0.906   0.903  0.2003  0.1878 -0.1781
   95DG     C12 2174   2.624   0.635   0.507  1.4429 -0.4264 -0.1259
   95DG     H13 2175   2.610   0.972   0.898  1.7391 -1.2302  3.9745
   95DG     H14 2176   2.441   0.946   0.962  0.3499 -0.1851  0.2904
   95DG     H15 2177   2.606   0.545   0.566  0.7629  0.0027  0.3312
   95DG     H16 2178   2.603   0.619   0.401  1.1996 -0.4267 -0.0774
   95DG     C17 2179   2.472   0.871   0.759 -0.0954  0.2696  0.2197
   95DG     C18 2180   2.527   0.741   0.560  0.2620 -0.0371  0.2427
   95DG     O19 2181   2.549   0.764   0.703 -0.1864  0.2832 -0.2415
   95DG     H20 2182   2.451   0.954   0.692 -4.1883  0.7770  1.8530
   95DG     H21 2183   2.371   0.836   0.783 -0.9192  2.8373  0.7994
   95DG     H22 2184   2.538   0.826   0.492  1.1299  0.3197  0.8139
   95DG     H23 2185   2.424   0.707   0.551 -0.0288  0.6889  0.7565
   96DG      C1 2186   4.843   4.829   2.491  0.8480 -0.1400  0.6905
   96DG      C2 2187   4.123   4.836   2.524  0.7970  0.3242 -0.0237
   96DG      H3 2188   4.828   4.933   2.517  1.6938 -0.0157  0.7094
   96DG      H4 2189   4.848   4.823   2.382 -0.4431 -1.8968  0.6713
   96DG      H5 2190   4.934   4.804   2.545  0.3952 -1.1100  1.0304
   96DG      H6 2191   4.108   4.831   2.416 -0.7694 -0.0621  0.1944
   96DG      H7 2192   4.034   4.801   2.576  0.7006 -1.2219 -1.1723
   96DG      H8 2193   4.134   4.940   2.555  0.1064 -0.3909  2.9535
   96DG      O9 2194   4.736   4.752   2.541  0.1685 -0.4620  0.2606
   96DG     O10 2195   4.241   4.761   2.558 -0.5126  0.0014 -0.3917
   96DG     C11 2196   4.714   4.622   2.485  0.2291 -0.7106  0.2607
   96DG     C12 2197   4.237   4.627   2.507  0.3652 -0.6178  0.6765
   96DG     H13 2198   4.805   4.563   2.490  0.7950  0.2643  1.7362
   96DG     H14 2199   4.698   4.629   2.377  0.3383 -3.3150  0.0093
   96DG     H15 2200   4.254   4.618   2.399 -3.0331 -0.3676 -0.0136
   96DG     H16 2201   4.147   4.568   2.527  1.1340 -1.9707  0.3347
   96DG     C17 2202   4.589   4.544   2.537  0.6635  0.2479  0.3371
   96DG     C18 2203   4.356   4.559   2.577 -0.3070 -0.2406 -0.6861
   96DG     O19 2204   4.467   4.614   2.509  0.2197 -0.1632  0.2849
   96DG     H20 2205   4.584   4.514   2.642 -0.8070  0.3287  0.3058
   96DG     H21 2206   4.579   4.444   2.493  0.3738 -0.0204  1.0017
   96DG     H22 2207   4.352   4.575   2.684 -2.6875 -0.2932 -0.7184
   96DG     H23 2208   4.346   4.453   2.553  1.4062 -0.3532 -1.0279
   97DG      C1 2209   2.791   1.907   0.925 -0.3320 -0.1296 -0.5159
   97DG      C2 2210   2.849   1.482   1.411 -0.0270 -0.2090 -0.2725
   97DG      H3 2211   2.731   1.992   0.892 -1.0444 -0.6688 -0.6380
   97DG      H4 2212   2.849   1.870   0.841 -1.3539 -0.3301 -1.1531
   97DG      H5 2213   2.864   1.958   0.987  1.2942 -0.6006 -1.9637
   97DG      H6 2214   2.898   1.563   1.465 -1.0389  2.5763 -3.2430
   97DG      H7 2215   2.805   1.426   1.494  0.4879 -2.5626 -1.5057
   97DG      H8 2216   2.933   1.440   1.355 -1.0208  0.5143 -2.4023
   97DG      O9 2217   2.716   1.809   0.999  0.4198 -0.0409  0.2155
   97DG     O10 2218   2.761   1.535   1.317  0.0993 -0.0580  0.2250
   97DG     C11 2219   2.623   1.744   0.912  0.6478  0.3470 -0.5135
   97DG     C12 2220   2.691   1.424   1.254  0.1618  0.3424 -0.5519
   97DG     H13 2221   2.685   1.693   0.838  2.2625  1.0583  0.2921
   97DG     H14 2222   2.558   1.805   0.849  0.7252  0.8394 -0.1207
   97DG     H15 2223   2.659   1.344   1.321  2.3736  1.0153  1.5001
   97DG     H16 2224   2.753   1.373   1.181 -0.7118 -0.5042 -0.7188
   97DG     C17 2225   2.544   1.646   1.013  0.0278 -0.2087 -0.0965
   97DG     C18 2226   2.570   1.483   1.185 -0.3208  0.6646 -0.2192
   97DG     O19 2227   2.634   1.558   1.083 -0.5971  0.1743 -0.4602
   97DG     H20 2228   2.477   1.582   0.956  0.9147  0.3033 -1.7961
   97DG     H21 2229   2.487   1.701   1.088  0.1884 -0.3047  0.0961
   97DG     H22 2230   2.509   1.404   1.140 -0.0405 -0.2364  0.9609
   97DG     H23 2231   2.505   1.545   1.247 -0.8079  1.1272 -1.1608
   98DG      C1 2232   0.346   0.710   4.136 -0.5026 -0.3246  0.3484
   98DG      C2 2233   0.741   0.164   4.534  0.6301  0.0871  0.0584
   98DG      H3 2234   0.319   0.636   4.060  0.7356 -0.8977  0.4540
   98DG      H4 2235   0.427   0.765   4.088 -0.4248 -1.2326 -0.5938
   98DG      H5 2236   0.258   0.775   4.139  0.6324  1.3108 -0.2560
   98DG      H6 2237   0.696   0.065   4.542 -0.2674  0.4732 -0.0781
   98DG      H7 2238   0.795   0.172   4.439  3.0298 -1.9520  1.1472
   98DG      H8 2239   0.821   0.166   4.607  0.4693 -0.8784  0.2722
   98DG      O9 2240   0.387   0.669   4.267 -0.1780  0.1565  0.1942
   98DG     O10 2241   0.640   0.268   4.543 -0.2952  0.4373 -0.0820
   98DG     C11 2242   0.289   0.602   4.345 -0.1925 -0.4895 -0.1050
   98DG     C12 2243   0.572   0.296   4.420  0.8698  1.4226 -0.1600
   98DG     H13 2244   0.270   0.509   4.292  1.5472 -1.1966  0.4480
   98DG     H14 2245   0.196   0.659   4.352  1.0838  2.2347 -2.8944
   98DG     H15 2246   0.543   0.197   4.386 -0.0697  1.8137 -0.5378
   98DG     H16 2247   0.642   0.346   4.352  2.4719  1.1873  1.2486
   98DG     C17 2248   0.335   0.563   4.480 -0.2641 -0.6275 -0.2822
   98DG     C18 2249   0.443   0.360   4.443  0.0661 -0.8075  0.0778
   98DG     O19 2250   0.462   0.496   4.482 -0.0096 -0.2112  0.5486
   98DG     H20 2251   0.259   0.504   4.531  0.5856 -0.5672  1.1322
   98DG     H21 2252   0.338   0.650   4.545 -1.8523 -1.0391  0.3823
   98DG     H22 2253   0.379   0.345   4.356  1.1233  1.8442 -1.2663
   98DG     H23 2254   0.398   0.308   4.528 -0.5876  2.3692  1.8152
   99DG      C1 2255   0.029   5.057   2.472  0.4007 -0.0174 -0.3180
   99DG      C2 2256  -0.621   5.019   2.003  0.9412 -0.0197  0.9851
   99DG      H3 2257   0.003   4.987   2.551  1.2151  0.7305  0.6482
   99DG      H4 2258  -0.012   5.157   2.488  0.8790 -0.0939  1.6657
   99DG      H5 2259   0.137   5.057   2.488  0.2817 -0.8143  0.6441
   99DG      H6 2260  -0.659   5.121   1.991  1.7118  0.3431  1.5346
   99DG      H7 2261  -0.593   4.973   1.909  0.2195 -2.9685  2.1048
   99DG      H8 2262  -0.705   4.959   2.039  1.0264 -0.6489  0.1615
   99DG      O9 2263   0.019   5.024   2.336  0.4114  0.4837 -0.7442
   99DG     O10 2264  -0.502   5.012   2.087  0.0530 -0.3179 -0.2317
   99DG     C11 2265  -0.113   5.016   2.290  0.2747 -0.2700  0.2595
   99DG     C12 2266  -0.518   5.094   2.200 -0.3360 -0.8305 -0.2960
   99DG     H13 2267  -0.181   4.963   2.357  1.4941  1.0443  2.6735
   99DG     H14 2268  -0.106   4.959   2.197  1.6164 -1.5495  1.1088
   99DG     H15 2269  -0.596   5.053   2.265 -0.5470 -0.4279 -0.2894
   99DG     H16 2270  -0.552   5.195   2.176  0.1925 -0.0625  1.9196
   99DG     C17 2271  -0.164   5.157   2.261  0.5787 -0.1000 -0.0580
   99DG     C18 2272  -0.394   5.117   2.279  0.1825  0.5236 -0.1417
   99DG     O19 2273  -0.288   5.158   2.199 -0.1998 -0.2169 -0.0240
   99DG     H20 2274  -0.084   5.212   2.210  1.6763 -0.4661  1.2162
   99DG     H21 2275  -0.160   5.210   2.356 -0.0442 -2.1984  1.1986
   99DG     H22 2276  -0.402   5.187   2.361 -1.5486  1.3273 -0.9587
   99DG     H23 2277  -0.371   5.027   2.337 -0.4906  1.1627  1.1394
  100DG      C1 2278   1.141   0.613   4.165  0.4168  0.6763 -0.3771
  100DG      C2 2279   0.965   0.997   4.656 -0.6999  0.3308 -0.4702
  100DG      H3 2280   1.211   0.592   4.085  1.7329  0.4892  0.7902
  100DG      H4 2281   1.043   0.640   4.126 -0.0319  0.0241  0.2528
  100DG      H5 2282   1.132   0.529   4.235  0.8715  2.4580  1.9441
  100DG      H6 2283   0.869   0.948   4.643 -1.2688  0.8504  1.5023
  100DG      H7 2284   1.004   0.961   4.751 -1.2285  3.0057  0.8435
  100DG      H8 2285   0.941   1.103   4.652  1.0769  0.8095  0.4966
  100DG      O9 2286   1.199   0.728   4.227 -0.4503 -0.1195  0.6302
  100DG     O10 2287   1.057   0.981   4.548 -0.2945 -0.1317 -0.6970
  100DG     C11 2288   1.336   0.708   4.267  0.3447  0.0562 -0.4176
  100DG     C12 2289   1.188   1.032   4.579 -0.8001 -0.4244 -0.0409
  100DG     H13 2290   1.397   0.686   4.179  1.8072 -0.3644  0.6460
  100DG     H14 2291   1.326   0.622   4.334 -0.7008 -0.7441 -1.5684
  100DG     H15 2292   1.220   0.979   4.669 -1.7082 -0.6133  0.1813
  100DG     H16 2293   1.164   1.135   4.607 -3.2381 -1.3117  1.4507
  100DG     C17 2294   1.386   0.844   4.344 -0.7481  0.4595  0.7981
  100DG     C18 2295   1.296   1.012   4.479  0.5998 -0.0464 -0.5634
  100DG     O19 2296   1.279   0.876   4.432  0.3429  0.3603 -0.4936
  100DG     H20 2297   1.378   0.915   4.262 -0.7812  0.1619  0.5409
  100DG     H21 2298   1.488   0.836   4.381  0.4638 -5.3340 -2.4785
  100DG     H22 2299   1.263   1.082   4.402 -0.8060 -0.7152 -0.5967
  100DG     H23 2300   1.393   1.045   4.515 -0.0200  0.4991  0.6706
  101DG      C1 2301   0.423   3.958   2.209  0.2080 -0.2115 -0.3827
  101DG      C2 2302  -0.074   3.683   2.074 -0.1157  1.0125  0.5445
  101DG      H3 2303   0.382   4.026   2.135 -0.6975  0.2573  0.5131
  101DG      H4 2304   0.470   3.868   2.171  0.9661  0.3898 -0.8970
  101DG      H5 2305   0.508   4.008   2.256  0.2455 -0.0045 -0.6716
  101DG      H6 2306  -0.022   3.596   2.035  0.9441  1.2742  1.3339
  101DG      H7 2307  -0.179   3.653   2.070  0.1524 -0.0732  1.0901
  101DG      H8 2308  -0.053   3.764   2.005  0.5403  0.9067  0.6117
  101DG      O9 2309   0.325   3.913   2.307  0.0721 -0.0608  0.2948
  101DG     O10 2310  -0.031   3.700   2.203  0.3074 -0.2412 -0.7990
  101DG     C11 2311   0.269   4.012   2.380  0.7341 -0.2401 -0.4879
  101DG     C12 2312  -0.113   3.795   2.269  0.4173 -0.0848 -0.2227
  101DG     H13 2313   0.215   4.078   2.312 -0.6119 -0.1658  0.5970
  101DG     H14 2314   0.342   4.073   2.433  0.6034 -1.5216  1.2370
  101DG     H15 2315  -0.216   3.764   2.289 -0.2486  2.4247  0.5927
  101DG     H16 2316  -0.135   3.876   2.201 -2.0303  0.9177  1.6174
  101DG     C17 2317   0.164   3.942   2.470 -0.3155 -0.6745  0.1789
  101DG     C18 2318  -0.049   3.848   2.396 -0.2985 -0.5625 -0.0126
  101DG     O19 2319   0.088   3.882   2.367 -0.6397  0.3566  0.6945
  101DG     H20 2320   0.098   4.003   2.531  0.8738 -1.4173  2.3094
  101DG     H21 2321   0.207   3.869   2.539 -2.0574 -2.0748 -0.1401
  101DG     H22 2322  -0.096   3.937   2.437  1.8242  0.7101 -0.1437
  101DG     H23 2323  -0.055   3.763   2.464 -1.8390 -0.3786  0.1124
  102DG      C1 2324   1.096   1.183   3.028 -0.4852  0.1267 -0.2368
  102DG      C2 2325   0.959   0.719   3.429 -0.4578 -0.3730 -0.4306
  102DG      H3 2326   1.097   1.245   2.938 -0.4991  1.1832  0.4749
  102DG      H4 2327   1.184   1.121   3.043 -0.6954  0.5422  4.1665
  102DG      H5 2328   1.105   1.255   3.110  1.5619  1.0798 -1.2349
  102DG      H6 2329   1.049   0.672   3.468 -1.0632 -0.6250  0.7116
  102DG      H7 2330   0.931   0.798   3.499  0.9900 -1.6538  1.6920
  102DG      H8 2331   0.890   0.635   3.420  1.9525 -2.4805 -0.4378
  102DG      O9 2332   0.968   1.114   3.037  0.1674 -0.5218  0.1201
  102DG     O10 2333   0.964   0.776   3.299  0.2408  0.0538  0.0770
  102DG     C11 2334   0.941   1.043   2.919  0.1699  0.2911  0.9506
  102DG     C12 2335   1.003   0.676   3.203  0.0425 -0.2523  0.1571
  102DG     H13 2336   0.991   1.083   2.831  0.3738 -0.3839  0.7502
  102DG     H14 2337   0.833   1.046   2.910  0.2614  2.0098  0.1072
  102DG     H15 2338   0.958   0.578   3.217 -2.9500  0.8655 -0.8437
  102DG     H16 2339   1.110   0.659   3.217 -0.0673  0.2304  1.9321
  102DG     C17 2340   0.982   0.901   2.920  0.3473 -0.5606 -0.0971
  102DG     C18 2341   0.995   0.718   3.061  0.0539  0.3854 -0.1194
  102DG     O19 2342   0.964   0.855   3.055 -0.8446 -0.8314 -0.6866
  102DG     H20 2343   1.089   0.907   2.897  0.3913  1.9227  0.5188
  102DG     H21 2344   0.920   0.835   2.859  0.0972 -3.2228  2.7968
  102DG     H22 2345   1.088   0.690   3.010 -0.1199 -0.8191  0.2074
  102DG     H23 2346   0.915   0.666   3.010  1.2552 -0.8527 -0.7966
  103DG      C1 2347   0.961   4.088   4.249  0.3552  0.4813 -0.6491
  103DG      C2 2348   1.116   4.336   4.831  0.1646 -0.6496 -0.4975
  103DG      H3 2349   0.852   4.074   4.254  0.6951 -2.9662 -0.1799
  103DG      H4 2350   1.016   4.012   4.305 -1.2525  0.0732  0.4621
  103DG      H5 2351   0.985   4.091   4.143  1.4565 -1.3238 -0.4992
  103DG      H6 2352   1.188   4.404   4.877 -0.4569 -0.8556  0.8617
  103DG      H7 2353   1.021   4.330   4.885  0.0008 -0.3333 -0.7473
  103DG      H8 2354   1.158   4.236   4.837  0.0158 -0.7625 -1.2523
  103DG      O9 2355   0.982   4.219   4.301 -0.5108  0.3505 -0.0117
  103DG     O10 2356   1.090   4.372   4.698  0.0957 -0.2316 -0.1471
  103DG     C11 2357   0.910   4.323   4.237  0.2409 -0.0296  0.2695
  103DG     C12 2358   1.018   4.495   4.683 -0.3664 -0.0674 -0.1955
  103DG     H13 2359   0.802   4.318   4.250  0.5029 -1.2537  2.6870
  103DG     H14 2360   0.924   4.332   4.130 -1.2338 -0.5902  0.0113
  103DG     H15 2361   1.075   4.573   4.733 -0.4089 -0.1727  0.0194
  103DG     H16 2362   0.924   4.488   4.739  0.2919  3.6195  1.6312
  103DG     C17 2363   0.964   4.448   4.312  0.1040  0.1624  0.3017
  103DG     C18 2364   1.008   4.533   4.534 -0.0202 -0.1809  0.1447
  103DG     O19 2365   0.970   4.418   4.454 -0.5040 -0.6397  0.1457
  103DG     H20 2366   0.893   4.530   4.301 -0.4329 -0.5638 -2.6053
  103DG     H21 2367   1.059   4.485   4.271 -0.0496 -1.3852 -1.5920
  103DG     H22 2368   0.939   4.615   4.517 -0.2965 -0.0216  1.8938
  103DG     H23 2369   1.102   4.563   4.488 -0.7455 -0.0374 -1.2838
  104DG      C1 2370   1.143   3.296   2.172 -0.2321  0.7189 -0.0843
  104DG      C2 2371   1.467   3.635   1.616 -0.6633  0.0553  0.6994
  104DG      H3 2372   1.149   3.222   2.251  1.5629  1.1389  0.2147
  104DG      H4 2373   1.082   3.236   2.104 -0.0863  0.4737 -0.0009
  104DG      H5 2374   1.090   3.379   2.217  0.9541  0.0153  2.8128
  104DG      H6 2375   1.435   3.734   1.649 -0.0140  0.8997 -1.1151
  104DG      H7 2376   1.550   3.653   1.548  1.4215 -1.9806  2.5265
  104DG      H8 2377   1.392   3.582   1.557  0.8678  0.6710 -1.9588
  104DG      O9 2378   1.271   3.338   2.130  0.8038  0.2606 -0.4989
  104DG     O10 2379   1.500   3.567   1.737 -0.5553 -0.0775  0.0407
  104DG     C11 2380   1.370   3.237   2.108 -0.7604 -0.1459 -0.3200
  104DG     C12 2381   1.542   3.439   1.708 -0.5880 -0.1637  0.2493
  104DG     H13 2382   1.331   3.152   2.053 -0.5346 -0.4860  0.0443
  104DG     H14 2383   1.412   3.202   2.202  0.0339 -0.8877 -0.9353
  104DG     H15 2384   1.629   3.439   1.642  0.2970 -1.6043  1.3530
  104DG     H16 2385   1.464   3.379   1.661 -0.7029  0.0560  0.1614
  104DG     C17 2386   1.497   3.291   2.037 -0.4246  0.4333 -0.2061
  104DG     C18 2387   1.584   3.371   1.838 -0.4110 -0.4225 -0.4488
  104DG     O19 2388   1.467   3.326   1.907 -0.0611 -0.6373 -0.9864
  104DG     H20 2389   1.573   3.213   2.040 -1.3238 -0.4173  1.6072
  104DG     H21 2390   1.543   3.373   2.093  1.2593 -0.5313 -0.1177
  104DG     H22 2391   1.635   3.279   1.811 -1.0481 -0.5113 -1.4051
  104DG     H23 2392   1.653   3.435   1.893  0.3991 -1.0216 -0.7527
  105DG      C1 2393   3.462   4.064   0.292 -0.2579  0.3933 -0.2498
  105DG      C2 2394   3.764   4.455   0.887  0.2299  0.1852  0.3269
  105DG      H3 2395   3.398   4.151   0.309 -1.1608 -0.5685  1.6156
  105DG      H4 2396   3.400   3.988   0.341 -0.1428  0.9174  0.7294
  105DG      H5 2397   3.464   4.046   0.184 -0.3169  0.0780 -0.2007
  105DG      H6 2398   3.852   4.486   0.943 -0.2408  2.5711 -0.1017
  105DG      H7 2399   3.797   4.457   0.783  0.6544  0.5127  0.4636
  105DG      H8 2400   3.689   4.535   0.882 -1.0096 -0.9481  0.4038
  105DG      O9 2401   3.591   4.085   0.356  0.3380  0.0337 -0.1042
  105DG     O10 2402   3.706   4.327   0.919  0.5401  0.1129  0.2611
  105DG     C11 2403   3.574   4.090   0.502 -1.4973 -0.0997 -0.1113
  105DG     C12 2404   3.800   4.220   0.906 -0.1932  0.5895 -0.1135
  105DG     H13 2405   3.526   4.006   0.552  1.7478 -0.5634  2.5847
  105DG     H14 2406   3.517   4.177   0.536  0.7610  1.3155  0.2500
  105DG     H15 2407   3.767   4.141   0.973  2.6242 -0.7875 -0.2297
  105DG     H16 2408   3.893   4.255   0.952  2.1657 -1.4365 -2.9415
  105DG     C17 2409   3.711   4.099   0.560 -0.8093 -0.4397  0.4154
  105DG     C18 2410   3.816   4.166   0.764  0.3779 -0.0135  0.3189
  105DG     O19 2411   3.694   4.129   0.706  0.3477 -0.2649 -0.2055
  105DG     H20 2412   3.769   4.171   0.502 -0.2558 -0.8787  0.4135
  105DG     H21 2413   3.773   4.010   0.555  1.0086  0.5425  3.1790
  105DG     H22 2414   3.865   4.251   0.715  0.7995 -0.6077 -0.3077
  105DG     H23 2415   3.878   4.077   0.762 -0.3538 -0.5332 -1.7320
  106DG      C1 2416   5.092   1.214   5.302  0.0118  0.4702 -0.0138
  106DG      C2 2417   4.569   0.918   5.655 -0.2124 -0.1064  0.9936
  106DG      H3 2418   5.117   1.108   5.302  5.7501  1.5218  0.4376
  106DG      H4 2419   5.140   1.252   5.392 -1.8600  1.3539  0.6594
  106DG      H5 2420   5.124   1.268   5.213 -2.4335  1.0268 -0.6487
  106DG      H6 2421   4.578   0.968   5.751  0.4935 -0.2666  1.0140
  106DG      H7 2422   4.473   0.867   5.650  0.3994 -1.1585 -0.8190
  106DG      H8 2423   4.662   0.864   5.635 -0.0640 -0.1345  1.7358
  106DG      O9 2424   4.957   1.239   5.323  0.2348 -0.2889  0.0370
  106DG     O10 2425   4.572   1.017   5.549  0.2325 -0.3567 -0.1469
  106DG     C11 2426   4.884   1.205   5.203  0.0647  0.0254  0.1540
  106DG     C12 2427   4.547   0.958   5.426  0.1133 -0.0672 -0.1245
  106DG     H13 2428   4.911   1.103   5.179 -1.1927 -0.6239  1.3572
  106DG     H14 2429   4.917   1.263   5.117  1.1025 -1.7836 -0.7075
  106DG     H15 2430   4.448   0.914   5.415 -0.4185  1.4117 -1.5330
  106DG     H16 2431   4.615   0.874   5.410 -0.2006 -0.5941  1.1778
  106DG     C17 2432   4.729   1.202   5.212 -0.2120  0.1669 -0.1930
  106DG     C18 2433   4.581   1.059   5.317 -0.4972  0.5798 -1.0178
  106DG     O19 2434   4.716   1.104   5.317  0.4704  0.2399  0.6943
  106DG     H20 2435   4.700   1.161   5.114  1.9342 -1.9090 -0.0439
  106DG     H21 2436   4.701   1.304   5.239  0.9581  1.0345 -2.0657
  106DG     H22 2437   4.568   1.008   5.222 -1.7956  0.7104 -0.9309
  106DG     H23 2438   4.510   1.142   5.318 -0.5320  0.5955  1.3978
  107DG      C1 2439   2.769   0.049   5.449 -0.4389  0.1679  0.1475
  107DG      C2 2440   2.455  -0.296   5.950 -0.1192 -0.6187 -0.0158
  107DG      H3 2441   2.871   0.082   5.466 -0.7053  1.4495 -0.5775
  107DG      H4 2442   2.720   0.106   5.370 -0.3241  0.3510  0.2087
  107DG      H5 2443   2.766  -0.056   5.419  1.3852  0.7416 -2.4181
  107DG      H6 2444   2.528  -0.377   5.948 -0.6843 -1.1197 -0.5941
  107DG      H7 2445   2.417  -0.283   6.052  0.3903  0.6646  0.0354
  107DG      H8 2446   2.383  -0.318   5.872 -0.5735  2.5926 -0.6559
  107DG      O9 2447   2.697   0.054   5.568  0.0938 -0.1869 -0.0960
  107DG     O10 2448   2.509  -0.169   5.910 -0.4528 -0.5206  0.3428
  107DG     C11 2449   2.727   0.177   5.636 -0.5310  0.3648  0.2307
  107DG     C12 2450   2.595  -0.105   5.999 -0.1515 -0.2609 -0.4886
  107DG     H13 2451   2.696   0.263   5.576 -2.9494 -1.0375 -0.6737
  107DG     H14 2452   2.833   0.181   5.660 -0.3983  2.9759 -0.4031
  107DG     H15 2453   2.692  -0.156   6.000 -0.9770 -1.8843 -0.3222
  107DG     H16 2454   2.570  -0.116   6.104  0.2794 -1.1864 -0.4708
  107DG     C17 2455   2.663   0.174   5.778  0.0325  0.0884  0.5951
  107DG     C18 2456   2.607   0.040   5.958 -0.0354  0.4102  0.5693
  107DG     O19 2457   2.659   0.041   5.830  0.0985 -0.2795  0.9167
  107DG     H20 2458   2.560   0.200   5.753 -0.7009 -2.0400  1.2122
  107DG     H21 2459   2.701   0.250   5.846 -0.7555  0.3078  0.8037
  107DG     H22 2460   2.504   0.074   5.950 -0.4785 -1.0362 -0.4681
  107DG     H23 2461   2.663   0.097   6.032  1.4894 -0.3198  0.0411
  108DG      C1 2462   3.708   5.124   1.807  0.0473 -0.0100  0.7738
  108DG      C2 2463   3.882   5.718   1.637 -0.0213 -0.1940  0.5424
  108DG      H3 2464   3.718   5.033   1.866 -1.1163 -0.5891  0.1250
  108DG      H4 2465   3.766   5.123   1.715 -1.9595 -2.7708 -0.5880
  108DG      H5 2466   3.609   5.113   1.763  1.3183 -0.1746 -2.3013
  108DG      H6 2467   3.987   5.696   1.621 -0.5414 -2.9787  0.3752
  108DG      H7 2468   3.823   5.683   1.552 -2.1686 -0.5848  2.1012
  108DG      H8 2469   3.868   5.825   1.652 -0.0864  0.0531 -1.1254
  108DG      O9 2470   3.723   5.247   1.879  0.1268 -0.5588  0.1439
  108DG     O10 2471   3.834   5.639   1.746 -0.1429 -0.2342 -0.2593
  108DG     C11 2472   3.688   5.360   1.794 -0.4199  0.2531 -0.4323
  108DG     C12 2473   3.892   5.680   1.871 -0.0437  0.3292  0.1084
  108DG     H13 2474   3.591   5.347   1.747 -1.4313  1.0364  1.3455
  108DG     H14 2475   3.754   5.385   1.711 -0.1355 -0.0401 -0.3011
  108DG     H15 2476   3.904   5.789   1.872 -1.4301  0.5017  0.8832
  108DG     H16 2477   3.989   5.636   1.894 -0.2141  0.8021  1.9468
  108DG     C17 2478   3.648   5.479   1.885  0.5493 -0.2089 -0.2641
  108DG     C18 2479   3.796   5.643   1.977  0.2784 -0.0391  0.6028
  108DG     O19 2480   3.757   5.504   1.965 -1.0392 -0.5061 -0.0415
  108DG     H20 2481   3.577   5.442   1.960 -0.8227  0.3823 -1.2180
  108DG     H21 2482   3.607   5.556   1.819 -1.3383  0.0366  1.0979
  108DG     H22 2483   3.855   5.644   2.069 -0.9835 -2.4152  1.5119
  108DG     H23 2484   3.712   5.712   1.982  1.1605  1.0915  0.3827
  109DG      C1 2485   3.465   1.705   3.724 -0.3192  0.4443  0.2186
  109DG      C2 2486   2.655   1.873   3.584  0.6380  0.0398 -0.1579
  109DG      H3 2487   3.467   1.626   3.799  0.3738  1.6039  1.4751
  109DG      H4 2488   3.455   1.793   3.787 -3.8813  0.9316 -0.7768
  109DG      H5 2489   3.555   1.703   3.662 -2.3279  0.8036 -2.9387
  109DG      H6 2490   2.580   1.926   3.643  0.5329  0.1611 -0.3997
  109DG      H7 2491   2.622   1.867   3.480  0.0694 -0.7227  0.0523
  109DG      H8 2492   2.653   1.770   3.619  0.5325 -0.7302 -2.2756
  109DG      O9 2493   3.349   1.681   3.642 -0.4820 -0.1711  0.0562
  109DG     O10 2494   2.781   1.930   3.605 -0.2043 -0.1393  0.8234
  109DG     C11 2495   3.345   1.763   3.528  0.2531 -0.1946  0.3937
  109DG     C12 2496   2.875   1.852   3.532 -0.5648  1.0316 -0.0645
  109DG     H13 2497   3.310   1.705   3.443 -5.5820 -0.5163  2.5773
  109DG     H14 2498   3.447   1.797   3.505  0.2682  0.0514  0.8179
  109DG     H15 2499   2.839   1.839   3.430  1.1564  3.1705 -1.0195
  109DG     H16 2500   2.902   1.756   3.576  3.7097  2.2542  0.4440
  109DG     C17 2501   3.240   1.870   3.545  0.4008 -0.4103  0.0010
  109DG     C18 2502   3.008   1.920   3.523 -0.4164  0.4425 -0.2502
  109DG     O19 2503   3.105   1.817   3.525 -0.6037  0.2254  0.4017
  109DG     H20 2504   3.255   1.946   3.468  1.9588 -0.9047 -0.2020
  109DG     H21 2505   3.247   1.916   3.643  1.7981  0.2265 -0.3635
  109DG     H22 2506   3.030   1.973   3.431  0.5358 -0.2019 -0.3976
  109DG     H23 2507   3.020   1.984   3.611 -2.9840 -1.2687  1.4893
  110DG      C1 2508   1.675   1.530   2.294 -0.3351 -0.4673 -0.2600
  110DG      C2 2509   0.989   1.592   2.672  0.3222 -0.9487  0.2298
  110DG      H3 2510   1.707   1.628   2.328 -0.3764 -0.7876  0.7286
  110DG      H4 2511   1.708   1.509   2.192 -0.7704 -0.6927 -0.3573
  110DG      H5 2512   1.730   1.460   2.357 -0.2819 -1.5888 -1.5027
  110DG      H6 2513   0.945   1.608   2.771 -0.7271  2.1780 -0.6377
  110DG      H7 2514   0.993   1.695   2.636 -2.7134 -1.1482 -0.9309
  110DG      H8 2515   0.914   1.545   2.608 -1.4898 -0.5414  1.9430
  110DG      O9 2516   1.538   1.506   2.306  0.0169 -0.6003 -0.3440
  110DG     O10 2517   1.106   1.522   2.666 -0.1998 -0.5129  0.0952
  110DG     C11 2518   1.496   1.525   2.451 -0.9232 -0.0871  0.5600
  110DG     C12 2519   1.106   1.390   2.633  0.3852 -0.4420  0.2108
  110DG     H13 2520   1.471   1.631   2.454  2.8552  1.1139 -2.0684
  110DG     H14 2521   1.583   1.504   2.513  0.9388  0.2388 -1.7665
  110DG     H15 2522   1.078   1.387   2.528  1.5966  1.0060 -0.1816
  110DG     H16 2523   1.034   1.333   2.692 -0.2912 -0.9009 -1.0212
  110DG     C17 2524   1.386   1.433   2.485 -0.0707 -0.0705  0.2050
  110DG     C18 2525   1.251   1.335   2.662  0.3245  0.5425 -0.2034
  110DG     O19 2526   1.358   1.425   2.630 -0.3073 -0.3447 -0.0250
  110DG     H20 2527   1.416   1.340   2.438 -1.6940  0.8719 -2.9726
  110DG     H21 2528   1.293   1.465   2.437 -1.2130 -1.2142  1.5401
  110DG     H22 2529   1.267   1.316   2.768 -0.8272 -3.3397 -0.5902
  110DG     H23 2530   1.270   1.242   2.610  2.2109  2.1557 -2.6258
  111DG      C1 2531   3.363   0.507   0.416 -0.0696 -0.1297  0.0962
  111DG      C2 2532   3.456   1.118   0.170  0.2281  1.0069 -0.3792
  111DG      H3 2533   3.471   0.513   0.407 -0.0546 -1.4451 -0.8821
  111DG      H4 2534   3.329   0.422   0.356  1.5377 -0.0983 -0.9171
  111DG      H5 2535   3.352   0.479   0.520  1.4401 -1.0909  0.0195
  111DG      H6 2536   3.532   1.141   0.244 -2.8252  1.4454  2.8959
  111DG      H7 2537   3.442   1.202   0.102 -1.2905  0.1020 -1.2438
  111DG      H8 2538   3.362   1.106   0.224 -0.7845 -0.8104 -2.3464
  111DG      O9 2539   3.306   0.634   0.368  0.1379 -0.0535 -0.2919
  111DG     O10 2540   3.495   0.999   0.102  0.5801 -0.3191  0.0382
  111DG     C11 2541   3.204   0.620   0.266  0.3054 -0.6709 -0.5854
  111DG     C12 2542   3.403   0.960   0.007  0.6193  0.4220 -0.0614
  111DG     H13 2543   3.124   0.568   0.318 -0.1626  0.9267  0.3733
  111DG     H14 2544   3.247   0.553   0.192  1.3604  0.3303 -0.9097
  111DG     H15 2545   3.446   0.880  -0.053  1.0843  0.2894  0.4436
  111DG     H16 2546   3.404   1.042  -0.065  3.1889 -1.4102 -2.3354
  111DG     C17 2547   3.172   0.752   0.202  0.0780 -0.3010  0.7098
  111DG     C18 2548   3.269   0.914   0.068  0.3197 -0.3203 -0.0218
  111DG     O19 2549   3.291   0.808   0.153  0.1439  0.1923 -0.2043
  111DG     H20 2550   3.124   0.823   0.268 -0.8250  1.0729 -1.3324
  111DG     H21 2551   3.111   0.730   0.114  1.1661 -0.4296 -0.0414
  111DG     H22 2552   3.218   0.995   0.120  0.9141 -0.3304  0.5941
  111DG     H23 2553   3.206   0.884  -0.016  0.0159  0.9829 -0.2822
  112DG      C1 2554   1.465   3.397   5.417 -0.4408  0.4480 -0.6366
  112DG      C2 2555   1.335   2.791   5.712 -0.3646  0.1297 -0.1360
  112DG      H3 2556   1.412   3.352   5.333 -0.3851 -1.1708  0.1616
  112DG      H4 2557   1.573   3.388   5.415 -0.0496  3.0012  2.1069
  112DG      H5 2558   1.440   3.502   5.429  1.2260  0.6756  1.2255
  112DG      H6 2559   1.439   2.776   5.740  0.3114  1.8362 -1.6136
  112DG      H7 2560   1.266   2.749   5.786 -0.4679  0.0392 -0.2838
  112DG      H8 2561   1.331   2.759   5.608  0.7457  1.3619 -0.5799
  112DG      O9 2562   1.417   3.320   5.531  0.0374 -0.3957  0.0539
  112DG     O10 2563   1.313   2.937   5.711  0.1697  0.6007 -0.4855
  112DG     C11 2564   1.435   3.392   5.653  0.0391 -0.6119 -0.2227
  112DG     C12 2565   1.297   2.986   5.845  0.3313  0.4904  0.1040
  112DG     H13 2566   1.414   3.498   5.643 -3.0942 -1.2408 -1.6340
  112DG     H14 2567   1.539   3.393   5.684 -0.2795 -2.1575  0.9912
  112DG     H15 2568   1.398   2.972   5.882  0.7966  2.2954 -0.3849
  112DG     H16 2569   1.232   2.933   5.915  1.4680 -0.7999  0.2076
  112DG     C17 2570   1.335   3.337   5.759  0.3335  0.1524  0.3490
  112DG     C18 2571   1.270   3.138   5.855  0.2812 -0.0046  0.1934
  112DG     O19 2572   1.365   3.200   5.774  0.1608  0.5665 -0.2192
  112DG     H20 2573   1.233   3.349   5.723  0.7740 -0.5617 -1.2260
  112DG     H21 2574   1.335   3.392   5.853 -4.6527  1.6788 -0.2747
  112DG     H22 2575   1.169   3.164   5.822  0.5647 -0.1327 -0.7895
  112DG     H23 2576   1.292   3.176   5.955  2.5422  1.3199 -0.7204
  113DG      C1 2577   1.513   4.905   2.391 -0.3877 -0.5370  0.1213
  113DG      C2 2578   0.737   5.231   2.577 -0.3364 -0.0590  0.5592
  113DG      H3 2579   1.498   4.805   2.432  2.2566 -1.4879 -0.9722
  113DG      H4 2580   1.583   4.965   2.448 -0.0750 -0.3238 -0.4758
  113DG      H5 2581   1.556   4.890   2.291  1.2512  1.1208  0.5286
  113DG      H6 2582   0.695   5.165   2.500  0.7671  1.7901 -1.7769
  113DG      H7 2583   0.703   5.193   2.673  1.1070 -3.3189 -0.0511
  113DG      H8 2584   0.700   5.333   2.574 -3.3211 -1.0630 -1.4393
  113DG      O9 2585   1.383   4.962   2.361  0.0820  0.4240 -0.6086
  113DG     O10 2586   0.877   5.211   2.581 -0.0331  1.0765  0.2190
  113DG     C11 2587   1.324   5.030   2.470  0.1555  0.4436  0.0073
  113DG     C12 2588   0.918   5.079   2.604  0.3462  0.2783  0.0670
  113DG     H13 2589   1.397   5.094   2.520  1.0588  0.9981 -1.9035
  113DG     H14 2590   1.302   4.956   2.546  1.1653 -0.2710 -0.3844
  113DG     H15 2591   0.902   5.026   2.509 -0.7378  0.1681  0.2927
  113DG     H16 2592   0.856   5.035   2.683 -2.6755  0.8555 -1.8017
  113DG     C17 2593   1.186   5.097   2.436 -0.1038 -0.4696 -0.0883
  113DG     C18 2594   1.072   5.084   2.643  0.0710  0.8328  0.8432
  113DG     O19 2595   1.148   5.170   2.557  0.2986  0.0224 -0.1228
  113DG     H20 2596   1.115   5.025   2.397 -0.1505 -1.0889  1.1089
  113DG     H21 2597   1.222   5.163   2.357  2.5685 -0.9985  0.5611
  113DG     H22 2598   1.091   5.134   2.738 -0.0091  1.1091  0.7153
  113DG     H23 2599   1.111   4.983   2.647  0.2001  0.7746 -0.9921
  114DG      C1 2600   3.439   3.792   2.635 -0.0546 -0.2076  0.0438
  114DG      C2 2601   3.475   3.222   2.666  0.2627  0.4862  0.4649
  114DG      H3 2602   3.342   3.832   2.605  0.5327 -0.4712 -2.4494
  114DG      H4 2603   3.493   3.781   2.541  1.7245 -1.1119  1.1041
  114DG      H5 2604   3.486   3.868   2.698  1.0920 -0.4788 -0.4518
  114DG      H6 2605   3.554   3.215   2.741  2.5277 -0.0518 -1.8328
  114DG      H7 2606   3.458   3.119   2.634  1.3007  1.0944 -2.3593
  114DG      H8 2607   3.517   3.275   2.581  0.3817  2.1318  1.5223
  114DG      O9 2608   3.419   3.664   2.702 -0.3579  0.3374  0.7793
  114DG     O10 2609   3.362   3.274   2.724  0.7212  0.3110 -0.4349
  114DG     C11 2610   3.383   3.678   2.832  0.1035  0.6547 -0.4477
  114DG     C12 2611   3.312   3.214   2.837 -0.3181  0.1692 -0.7460
  114DG     H13 2612   3.281   3.712   2.851 -0.4040 -1.2192  0.3661
  114DG     H14 2613   3.452   3.748   2.880  0.8477 -1.1838  1.3062
  114DG     H15 2614   3.388   3.147   2.877 -0.8834 -0.7505 -1.1740
  114DG     H16 2615   3.208   3.182   2.832 -0.5797  0.6124  1.1983
  114DG     C17 2616   3.394   3.541   2.907  0.2843  0.3904  0.1912
  114DG     C18 2617   3.311   3.325   2.936  0.3721  0.5690  0.5195
  114DG     O19 2618   3.290   3.448   2.865  0.0858  0.0133  0.1775
  114DG     H20 2619   3.380   3.566   3.012 -0.3028  1.8211 -0.2120
  114DG     H21 2620   3.485   3.480   2.902 -0.7890 -1.5611  2.3020
  114DG     H22 2621   3.225   3.301   3.000 -0.0241 -1.8176 -0.7649
  114DG     H23 2622   3.401   3.321   2.996  1.7157  0.3297 -1.4065
  115DG      C1 2623   3.076   2.366   5.304 -0.5470  0.4394 -1.1436
  115DG      C2 2624   2.420   2.507   5.832  0.4437  0.5385  0.7029
  115DG      H3 2625   3.117   2.266   5.308 -0.8537  0.3604  1.7172
  115DG      H4 2626   3.161   2.430   5.329 -0.2048 -0.1100 -0.8919
  115DG      H5 2627   3.039   2.391   5.205 -0.8815 -2.5100 -1.8542
  115DG      H6 2628   2.490   2.587   5.859  1.4562  0.1129 -0.5667
  115DG      H7 2629   2.330   2.512   5.893  0.1281 -0.5936  0.3506
  115DG      H8 2630   2.473   2.419   5.868 -1.3485  0.1185  2.4690
  115DG      O9 2631   2.961   2.381   5.391  0.0918  0.3149  0.0999
  115DG     O10 2632   2.386   2.502   5.689 -0.0564  0.3326 -0.2795
  115DG     C11 2633   2.850   2.301   5.342  0.3419 -0.3083 -0.0227
  115DG     C12 2634   2.500   2.509   5.602  0.2169 -0.3907 -0.0338
  115DG     H13 2635   2.887   2.203   5.313 -2.1407 -1.1056 -0.7268
  115DG     H14 2636   2.814   2.350   5.252  1.6816  0.8266  0.0146
  115DG     H15 2637   2.571   2.582   5.640  0.1173 -0.5994  0.5550
  115DG     H16 2638   2.455   2.547   5.510  1.4645 -0.7069 -0.8015
  115DG     C17 2639   2.735   2.285   5.439 -0.5345  0.9611 -0.1151
  115DG     C18 2640   2.567   2.375   5.574 -0.0715  0.0823  0.3430
  115DG     O19 2641   2.673   2.403   5.486  0.1854  0.2112  0.1271
  115DG     H20 2642   2.786   2.239   5.524 -1.6296  1.7762  1.0307
  115DG     H21 2643   2.666   2.210   5.402  0.2013 -0.2411  0.8474
  115DG     H22 2644   2.623   2.345   5.663 -0.2896 -1.8378 -0.1257
  115DG     H23 2645   2.498   2.296   5.547  1.5049 -0.3001 -3.0166
  116DG      C1 2646   4.364   4.277   1.290  0.2824 -0.4840 -0.0440
  116DG      C2 2647   4.776   4.790   1.743 -0.3458  0.3748 -0.4270
  116DG      H3 2648   4.302   4.190   1.310 -2.5520  1.3727 -0.1976
  116DG      H4 2649   4.425   4.264   1.200 -0.6938 -0.1643 -0.7747
  116DG      H5 2650   4.289   4.353   1.267  1.7144  1.3772  1.1257
  116DG      H6 2651   4.878   4.756   1.756 -1.0550 -1.5894  0.2491
  116DG      H7 2652   4.765   4.882   1.686 -2.4600  0.9892  0.8603
  116DG      H8 2653   4.733   4.809   1.842  0.8713 -0.0841  0.2029
  116DG      O9 2654   4.445   4.320   1.401  0.4169  0.0933  0.3462
  116DG     O10 2655   4.697   4.676   1.715  0.0715  0.2444 -0.4903
  116DG     C11 2656   4.366   4.348   1.515  0.5278 -0.1606  0.1796
  116DG     C12 2657   4.741   4.603   1.606 -0.0727  0.0432 -0.0793
  116DG     H13 2658   4.298   4.266   1.537 -0.6554  0.7796  0.1226
  116DG     H14 2659   4.301   4.434   1.503 -1.5702 -1.5521  0.9959
  116DG     H15 2660   4.846   4.580   1.621 -0.2963 -0.0199  1.6075
  116DG     H16 2661   4.726   4.651   1.509 -2.7548  0.3885  0.4200
  116DG     C17 2662   4.436   4.379   1.640  0.2818  0.3124  0.0620
  116DG     C18 2663   4.656   4.472   1.605  0.1044  0.0315  0.2124
  116DG     O19 2664   4.514   4.498   1.622  0.0156 -0.0286 -0.3575
  116DG     H20 2665   4.482   4.283   1.666  0.6350  0.3632 -0.3660
  116DG     H21 2666   4.358   4.400   1.713 -1.1024 -0.1137 -1.2222
  116DG     H22 2667   4.667   4.421   1.509  0.3104 -0.0935  0.3024
  116DG     H23 2668   4.697   4.404   1.679 -1.0137 -1.2014 -0.2674
  117DG      C1 2669   1.995   0.034   0.209  0.3290 -0.5881  0.6583
  117DG      C2 2670   1.397  -0.096   0.447 -0.1114 -0.1900 -0.1163
  117DG      H3 2671   2.064   0.006   0.289 -1.1536  1.0299  2.6082
  117DG      H4 2672   2.047   0.110   0.150  0.0473  1.8622  3.3624
  117DG      H5 2673   1.974  -0.060   0.157  0.1653  1.1998 -2.8347
  117DG      H6 2674   1.474  -0.109   0.523  0.6515 -0.3469 -0.8941
  117DG      H7 2675   1.306  -0.071   0.501  0.2562  0.3527  0.2580
  117DG      H8 2676   1.398  -0.193   0.396  0.6058  0.3585 -1.1954
  117DG      O9 2677   1.867   0.091   0.261  0.1612  0.2040  0.3107
  117DG     O10 2678   1.440   0.006   0.372 -0.3804  0.1247 -0.5935
  117DG     C11 2679   1.881   0.222   0.320 -0.0920  0.0982  0.3017
  117DG     C12 2680   1.448   0.121   0.455 -0.4142  0.0130  0.2157
  117DG     H13 2681   1.949   0.293   0.272  0.5772 -0.6558  0.1195
  117DG     H14 2682   1.923   0.212   0.420  0.4392 -1.1345 -0.0347
  117DG     H15 2683   1.502   0.118   0.550 -0.5620  2.3023  0.4374
  117DG     H16 2684   1.347   0.153   0.479 -0.6450  0.2323 -0.9747
  117DG     C17 2685   1.740   0.284   0.319 -0.5396 -0.2560  0.1442
  117DG     C18 2686   1.516   0.229   0.371 -0.3395  0.6762 -0.1369
  117DG     O19 2687   1.648   0.185   0.364 -0.5707 -0.3536  0.2859
  117DG     H20 2688   1.712   0.308   0.216 -1.3512 -0.7971  0.2319
  117DG     H21 2689   1.732   0.374   0.380 -1.7015  0.0227 -0.3833
  117DG     H22 2690   1.472   0.244   0.272 -1.9851  0.9949  0.6168
  117DG     H23 2691   1.503   0.328   0.415 -0.5486 -1.2086  4.5890
  118DG      C1 2692   1.581   2.538   3.906 -0.2232 -0.2854  0.4765
  118DG      C2 2693   1.727   3.143   4.124  0.4469  0.2781  0.4531
  118DG      H3 2694   1.535   2.514   4.002  0.4116 -0.1426  0.8244
  118DG      H4 2695   1.599   2.442   3.857 -0.4226 -0.1736  0.1830
  118DG      H5 2696   1.508   2.574   3.834  0.5710  1.7530  0.6373
  118DG      H6 2697   1.734   3.146   4.233 -0.9343 -0.4122  0.5884
  118DG      H7 2698   1.784   3.222   4.075 -1.1930  0.9634 -0.4414
  118DG      H8 2699   1.620   3.158   4.106  0.4130  0.7892  1.0410
  118DG      O9 2700   1.703   2.616   3.903 -0.4962  0.4531 -0.0328
  118DG     O10 2701   1.780   3.015   4.082  0.0130 -0.4022  0.1193
  118DG     C11 2702   1.809   2.548   3.973  0.8166 -0.3491  0.1527
  118DG     C12 2703   1.908   2.974   4.136 -0.1314 -0.6435 -0.6168
  118DG     H13 2704   1.842   2.461   3.917  0.1702  0.7234 -2.0168
  118DG     H14 2705   1.783   2.511   4.072 -0.2826 -0.4002 -0.1519
  118DG     H15 2706   1.878   2.944   4.236  1.5762  1.9607  0.7923
  118DG     H16 2707   1.959   3.069   4.152 -1.5948  0.0469  0.0751
  118DG     C17 2708   1.926   2.646   3.996 -0.2935 -0.6968 -0.0775
  118DG     C18 2709   1.981   2.863   4.062 -0.1146 -0.1914  0.4428
  118DG     O19 2710   1.879   2.777   4.030  0.2494 -0.2097  0.2967
  118DG     H20 2711   1.993   2.659   3.912 -0.6273  0.0535 -0.2292
  118DG     H21 2712   1.987   2.608   4.078  1.1341  0.1012 -0.7365
  118DG     H22 2713   2.020   2.902   3.969 -2.1959  0.1012 -0.3739
  118DG     H23 2714   2.070   2.825   4.112  0.5095  1.0367  0.2999
  119DG      C1 2715   3.952   1.217   4.766 -1.0610  0.5288 -0.6792
  119DG      C2 2716   4.189   1.921   4.788 -0.2022 -0.0589  0.0074
  119DG      H3 2717   3.855   1.168   4.779 -0.3907 -0.3810  1.1306
  119DG      H4 2718   4.016   1.131   4.785  0.1150  1.6589  0.6782
  119DG      H5 2719   3.945   1.246   4.661 -1.0148  0.8578 -0.5897
  119DG      H6 2720   4.102   1.972   4.745  0.0217 -1.0735 -1.7764
  119DG      H7 2721   4.170   1.907   4.894  0.1149 -1.0896 -0.0543
  119DG      H8 2722   4.277   1.984   4.776 -0.6025  0.9042  1.8826
  119DG      O9 2723   3.971   1.305   4.871 -0.4122 -0.0065 -0.9988
  119DG     O10 2724   4.188   1.793   4.729 -0.2515 -0.0514  0.2613
  119DG     C11 2725   3.929   1.435   4.844 -0.1763  0.0510  0.0557
  119DG     C12 2726   4.297   1.715   4.769  0.3221  0.3932  0.1900
  119DG     H13 2727   3.934   1.493   4.936  0.2114  1.6878 -0.9677
  119DG     H14 2728   3.829   1.439   4.801 -1.0638 -0.3969  1.9610
  119DG     H15 2729   4.323   1.731   4.873 -3.2862  0.7900  1.1633
  119DG     H16 2730   4.381   1.759   4.716 -0.5856  1.1810 -0.6496
  119DG     C17 2731   4.027   1.514   4.748 -0.0793 -0.6560  0.0713
  119DG     C18 2732   4.268   1.564   4.733  0.7956 -0.3265  0.4759
  119DG     O19 2733   4.158   1.509   4.801  0.1167  0.3634  0.0916
  119DG     H20 2734   3.996   1.616   4.729  1.9634  0.2994  1.5210
  119DG     H21 2735   4.036   1.461   4.653 -0.2546 -3.7182  1.6360
  119DG     H22 2736   4.243   1.561   4.627  1.1290  1.7647  0.2875
  119DG     H23 2737   4.359   1.505   4.739  0.4544 -0.9770 -0.5314
  120DG      C1 2738   4.903   5.175   4.488  0.5365 -0.2238 -0.2045
  120DG      C2 2739   5.140   5.595   4.044  0.7162 -0.2307 -0.2705
  120DG      H3 2740   4.831   5.248   4.526  0.0694 -0.8486  0.1379
  120DG      H4 2741   5.004   5.204   4.516  0.5257  0.4451 -0.8430
  120DG      H5 2742   4.872   5.081   4.533 -1.1849  0.8168  0.8889
  120DG      H6 2743   5.201   5.575   3.956  2.0955 -1.5975  0.9394
  120DG      H7 2744   5.104   5.698   4.042 -0.8620 -0.7353  0.3694
  120DG      H8 2745   5.200   5.589   4.135 -1.5940  2.5532  1.6044
  120DG      O9 2746   4.900   5.189   4.354  0.0707  0.7609  0.0066
  120DG     O10 2747   5.041   5.493   4.057  0.3811  0.4844 -0.4128
  120DG     C11 2748   4.772   5.173   4.303  1.2256 -0.4162 -0.1937
  120DG     C12 2749   4.930   5.488   3.963 -0.1841  0.6416  0.3776
  120DG     H13 2750   4.698   5.234   4.355 -1.0671  0.2592 -3.9018
  120DG     H14 2751   4.725   5.077   4.322 -0.8986  0.4470 -0.8506
  120DG     H15 2752   4.966   5.493   3.861  2.8225  2.7199  1.4219
  120DG     H16 2753   4.873   5.579   3.980  0.4479  1.0071  0.5754
  120DG     C17 2754   4.769   5.211   4.152  0.0205 -0.1640  0.1897
  120DG     C18 2755   4.862   5.357   3.984 -0.2517 -0.7037 -0.2809
  120DG     O19 2756   4.850   5.327   4.121 -0.3191 -0.3140 -0.1963
  120DG     H20 2757   4.670   5.229   4.110  0.9507 -0.8477 -2.4712
  120DG     H21 2758   4.799   5.127   4.090 -1.2642 -0.7079  0.2695
  120DG     H22 2759   4.766   5.382   3.939  0.8717  3.2281 -0.9633
  120DG     H23 2760   4.915   5.275   3.935  1.8189 -0.2404  1.0265
  121DG      C1 2761   4.939   3.494   4.226 -0.2447  0.6732  0.2048
  121DG      C2 2762   5.279   3.603   4.761 -1.1087 -0.0093 -0.6406
  121DG      H3 2763   4.846   3.502   4.170  0.2876 -2.4497 -1.3683
  121DG      H4 2764   4.941   3.394   4.270 -0.8310  0.1357 -0.9475
  121DG      H5 2765   5.024   3.493   4.157  0.3867 -1.3181  0.9202
  121DG      H6 2766   5.327   3.572   4.854  0.2261 -0.9887 -1.6222
  121DG      H7 2767   5.348   3.579   4.680 -0.0377 -0.1446  0.2860
  121DG      H8 2768   5.279   3.712   4.763  1.1268  0.0362  0.7047
  121DG      O9 2769   4.941   3.588   4.326 -0.3315 -0.2523 -0.4239
  121DG     O10 2770   5.146   3.557   4.740 -0.7715 -0.2970 -0.7543
  121DG     C11 2771   4.831   3.575   4.418 -0.0154 -0.2813 -0.0300
  121DG     C12 2772   5.134   3.417   4.738  0.0791  0.4285 -0.1744
  121DG     H13 2773   4.738   3.566   4.362  0.0581 -0.8844 -0.0605
  121DG     H14 2774   4.835   3.666   4.479  2.6163 -0.3936  0.0474
  121DG     H15 2775   5.145   3.363   4.832 -0.6333  2.0854  0.9075
  121DG     H16 2776   5.203   3.378   4.663 -1.0123  0.2966 -1.1338
  121DG     C17 2777   4.851   3.464   4.520 -0.2804  0.3069  0.2111
  121DG     C18 2778   5.001   3.380   4.679 -0.3327  0.0423 -0.2115
  121DG     O19 2779   4.976   3.482   4.582  0.2606 -0.6881 -0.3884
  121DG     H20 2780   4.854   3.364   4.475  1.9027  0.5578 -0.3019
  121DG     H21 2781   4.767   3.468   4.589 -0.8080 -0.4415 -0.3699
  121DG     H22 2782   4.991   3.276   4.650 -0.3449  0.3800 -1.4664
  121DG     H23 2783   4.927   3.392   4.758 -0.9152  2.2183 -1.0131
  122DG      C1 2784   2.783   0.726   1.214 -0.0172 -0.8747 -0.5172
  122DG      C2 2785   2.378   0.148   1.141  0.3255 -0.2694 -0.0895
  122DG      H3 2786   2.803   0.714   1.108  3.8348  0.4179 -0.0998
  122DG      H4 2787   2.877   0.738   1.267 -0.8726 -2.3353  1.4633
  122DG      H5 2788   2.728   0.820   1.228  1.6387 -0.1935  2.2796
  122DG      H6 2789   2.364   0.045   1.174  0.7216 -0.2460  0.1597
  122DG      H7 2790   2.274   0.179   1.147  0.8052  1.2957  0.6073
  122DG      H8 2791   2.406   0.134   1.036  0.7302  0.9488 -0.1536
  122DG      O9 2792   2.702   0.624   1.269  0.7008 -0.2630 -0.0420
  122DG     O10 2793   2.459   0.231   1.220  0.0377  0.1777  0.7453
  122DG     C11 2794   2.677   0.633   1.408  0.2716 -0.1686 -0.4605
  122DG     C12 2795   2.423   0.223   1.356  0.0522  0.6131 -0.5067
  122DG     H13 2796   2.599   0.704   1.434 -0.5679 -0.9152 -0.8942
  122DG     H14 2797   2.764   0.658   1.469 -1.3363 -1.3668  2.5290
  122DG     H15 2798   2.427   0.120   1.390  2.1591  0.3999 -1.2040
  122DG     H16 2799   2.321   0.258   1.368  0.3979  1.7286 -0.6916
  122DG     C17 2800   2.636   0.508   1.471 -1.0419 -0.1062  0.5032
  122DG     C18 2801   2.523   0.302   1.440 -0.1251 -0.2526 -0.3457
  122DG     O19 2802   2.542   0.437   1.389 -0.0457  0.0733 -0.7067
  122DG     H20 2803   2.612   0.511   1.578  1.1659  0.9492  1.0245
  122DG     H21 2804   2.735   0.462   1.466  0.5594  3.1646 -0.4531
  122DG     H22 2805   2.483   0.313   1.541 -0.1387  1.7405 -0.5349
  122DG     H23 2806   2.621   0.257   1.454 -0.1391  0.4404  2.8244
  123DG      C1 2807   5.348   3.715   3.310  0.1419 -0.0468  0.3048
  123DG      C2 2808   5.822   4.086   2.781 -0.2749 -0.4960 -0.2522
  123DG      H3 2809   5.390   3.615   3.312 -2.4576 -1.3370 -1.9532
  123DG      H4 2810   5.263   3.716   3.242 -1.1236 -0.7470  1.8096
  123DG      H5 2811   5.310   3.741   3.409  1.3128  2.0722  0.2565
  123DG      H6 2812   5.858   4.180   2.824  0.1294 -0.6873 -0.1650
  123DG      H7 2813   5.910   4.024   2.767  0.3403  0.1910  0.4617
  123DG      H8 2814   5.792   4.105   2.678 -2.1376  0.4017  0.4088
  123DG      O9 2815   5.450   3.805   3.268 -0.0971 -0.0251 -0.0571
  123DG     O10 2816   5.721   4.030   2.875  0.3821  0.0645  0.3839
  123DG     C11 2817   5.396   3.933   3.260 -0.4735 -0.3725  0.7668
  123DG     C12 2818   5.788   4.022   3.003 -0.1877  0.2167  0.3262
  123DG     H13 2819   5.361   3.953   3.361 -0.3764 -2.1044  1.1723
  123DG     H14 2820   5.316   3.947   3.187  1.0499  1.0125 -0.7290
  123DG     H15 2821   5.889   4.063   3.006 -0.3700  0.8421 -1.1810
  123DG     H16 2822   5.797   3.917   3.030 -0.4856 -0.1347 -0.8574
  123DG     C17 2823   5.512   4.035   3.245  0.6244 -0.1613  0.3991
  123DG     C18 2824   5.704   4.082   3.116 -0.7923 -0.7502  0.1176
  123DG     O19 2825   5.593   3.990   3.144  0.1974 -0.5435  0.0606
  123DG     H20 2826   5.560   4.054   3.341 -2.5826  0.7775  1.9717
  123DG     H21 2827   5.472   4.132   3.215  0.0359 -0.3495  0.5687
  123DG     H22 2828   5.756   4.089   3.212 -0.4871 -0.9386 -0.0298
  123DG     H23 2829   5.669   4.182   3.092 -2.7708 -1.4593 -0.0959
  124DG      C1 2830   4.891   3.015   1.167 -0.2017  0.0597  0.1874
  124DG      C2 2831   4.247   3.476   1.358 -0.1908 -0.1574  0.2511
  124DG      H3 2832   4.990   3.005   1.211  0.5996  0.3159 -1.4748
  124DG      H4 2833   4.895   3.042   1.061  2.6917 -0.5194  0.0779
  124DG      H5 2834   4.840   2.918   1.169 -0.1298  0.0329  0.7007
  124DG      H6 2835   4.217   3.424   1.268  1.5313  1.1320 -1.1442
  124DG      H7 2836   4.162   3.494   1.424 -1.0915 -1.3914 -0.5550
  124DG      H8 2837   4.292   3.573   1.334 -2.5904  1.0625  0.3663
  124DG      O9 2838   4.816   3.098   1.258 -0.0073  0.2643 -1.0644
  124DG     O10 2839   4.338   3.408   1.438  0.0896  0.2735 -0.1581
  124DG     C11 2840   4.802   3.035   1.380 -0.4436  0.0484  0.0177
  124DG     C12 2841   4.450   3.352   1.370  0.4548  0.3017  0.4806
  124DG     H13 2842   4.896   3.010   1.429  0.6497  0.2543 -1.9203
  124DG     H14 2843   4.759   2.936   1.365 -0.7331 -0.1809  2.0128
  124DG     H15 2844   4.519   3.426   1.330  0.7196  0.2519  0.8494
  124DG     H16 2845   4.417   3.295   1.283 -1.2403  1.2217  0.4641
  124DG     C17 2846   4.718   3.128   1.471  0.3327  0.2271 -0.0074
  124DG     C18 2847   4.522   3.261   1.464  1.2876 -0.0869  0.5614
  124DG     O19 2848   4.612   3.181   1.390  0.2505 -0.1180 -0.2024
  124DG     H20 2849   4.778   3.211   1.509 -1.3401  0.8876  1.3362
  124DG     H21 2850   4.684   3.066   1.554  4.1334 -1.8453  0.2408
  124DG     H22 2851   4.578   3.316   1.540 -0.3343  0.2135  1.5931
  124DG     H23 2852   4.451   3.199   1.519  0.4220  1.0451  0.7358
  125DG      C1 2853   2.239   0.815   4.875  0.5940  0.0435 -0.3723
  125DG      C2 2854   2.233   0.361   4.410  0.2170  0.3884 -0.2339
  125DG      H3 2855   2.248   0.885   4.957  1.9000  0.5416 -0.9115
  125DG      H4 2856   2.143   0.767   4.892  0.2690 -0.2203 -2.6349
  125DG      H5 2857   2.223   0.869   4.782 -3.5688 -1.8752 -0.9908
  125DG      H6 2858   2.124   0.356   4.411  0.2308 -0.8119 -1.7957
  125DG      H7 2859   2.269   0.437   4.340  0.3909  0.7210  0.2109
  125DG      H8 2860   2.270   0.262   4.384  1.1203  0.0701  2.0362
  125DG      O9 2861   2.339   0.715   4.855  0.6715  0.2210 -0.2617
  125DG     O10 2862   2.275   0.390   4.545  0.6573 -0.7964  0.2798
  125DG     C11 2863   2.356   0.629   4.968 -0.0268 -0.3809  0.0679
  125DG     C12 2864   2.256   0.284   4.642 -0.5113  0.1978  0.4908
  125DG     H13 2865   2.266   0.626   5.030  0.0372  1.9220  0.3620
  125DG     H14 2866   2.434   0.674   5.028  1.5266 -1.5839 -0.9740
  125DG     H15 2867   2.271   0.182   4.604 -1.4348  0.1905  0.1412
  125DG     H16 2868   2.151   0.286   4.668 -0.7742 -1.0238 -0.3562
  125DG     C17 2869   2.403   0.491   4.907 -0.0172 -0.6177  0.5235
  125DG     C18 2870   2.333   0.315   4.767 -0.2984  0.7240 -0.4147
  125DG     O19 2871   2.317   0.452   4.795 -0.3958  0.6794 -0.1044
  125DG     H20 2872   2.400   0.407   4.977  0.2525 -0.8508  0.2597
  125DG     H21 2873   2.504   0.493   4.868  0.0103 -0.4880  0.6040
  125DG     H22 2874   2.320   0.251   4.854 -1.4436  2.5379  0.8089
  125DG     H23 2875   2.437   0.290   4.745 -0.0930  0.3446  0.9071
  126DG      C1 2876   1.879   3.670   4.990 -0.2713 -0.3060 -0.5722
  126DG      C2 2877   1.983   3.022   4.777  0.2705 -1.0214 -0.1225
  126DG      H3 2878   1.798   3.742   4.998  0.0753 -0.1207  1.9191
  126DG      H4 2879   1.913   3.666   4.886  2.2060  0.7676  0.1307
  126DG      H5 2880   1.966   3.698   5.050 -1.3949  0.1270  0.8930
  126DG      H6 2881   1.978   2.915   4.795 -1.0704 -0.9648 -0.0820
  126DG      H7 2882   1.951   3.041   4.674  0.0499 -0.0516  0.1127
  126DG      H8 2883   2.085   3.058   4.794  0.9303 -3.3010  1.1531
  126DG      O9 2884   1.848   3.535   5.028 -0.2964 -0.3965  0.3609
  126DG     O10 2885   1.902   3.089   4.865 -0.0489 -0.3765 -0.7022
  126DG     C11 2886   1.821   3.503   5.163 -0.4369 -0.2557 -0.0555
  126DG     C12 2887   1.929   3.062   5.002  1.2780 -0.1952 -0.6239
  126DG     H13 2888   1.739   3.567   5.196 -1.1530 -1.0192 -0.3065
  126DG     H14 2889   1.907   3.524   5.226  0.0400  0.3541 -0.8910
  126DG     H15 2890   2.031   3.095   5.019  1.2765 -0.6276  0.2386
  126DG     H16 2891   1.911   2.957   5.027 -2.5756  0.8561  1.8344
  126DG     C17 2892   1.778   3.353   5.175  0.1793  0.5728  0.1181
  126DG     C18 2893   1.838   3.134   5.089  0.4291 -0.0128 -0.5092
  126DG     O19 2894   1.854   3.275   5.089  0.0798 -0.2859  0.7518
  126DG     H20 2895   1.672   3.348   5.147 -0.3498 -1.3688  2.1262
  126DG     H21 2896   1.785   3.317   5.278 -1.6023 -0.2689  0.0013
  126DG     H22 2897   1.736   3.111   5.058 -0.5842  2.4831  0.7000
  126DG     H23 2898   1.844   3.084   5.186 -1.8272  1.3915  0.4381
  127DG      C1 2899   4.948   2.550   0.420  0.6287 -0.3138  0.4001
  127DG      C2 2900   4.724   1.918   0.308 -0.2829  0.6900 -0.4343
  127DG      H3 2901   4.846   2.581   0.399  1.7910  2.4742 -1.9028
  127DG      H4 2902   5.011   2.635   0.392 -2.4124  1.4139 -1.8387
  127DG      H5 2903   4.963   2.523   0.525 -1.5709  1.6583  1.3106
  127DG      H6 2904   4.685   1.956   0.403 -0.0141 -0.7660  0.2807
  127DG      H7 2905   4.641   1.890   0.243 -0.1043  0.2065 -0.4534
  127DG      H8 2906   4.769   1.824   0.337  1.5937  1.7822  0.3777
  127DG      O9 2907   4.975   2.438   0.338  0.7067  0.1697  0.6573
  127DG     O10 2908   4.810   2.015   0.247 -0.3612 -0.6859  0.3433
  127DG     C11 2909   5.105   2.384   0.342 -0.1286  0.3704  0.0565
  127DG     C12 2910   4.891   1.977   0.142 -0.1853 -0.5950  0.1186
  127DG     H13 2911   5.115   2.323   0.432 -0.3348 -0.0812 -0.2203
  127DG     H14 2912   5.190   2.452   0.341 -1.0037  1.4852 -0.4443
  127DG     H15 2913   4.843   1.927   0.058  0.4429  0.7793 -1.1136
  127DG     H16 2914   4.956   1.899   0.182 -0.6078 -0.9138  0.1900
  127DG     C17 2915   5.112   2.277   0.227 -0.4408 -0.1162  0.2755
  127DG     C18 2916   4.968   2.117   0.117 -0.4870 -0.1076 -0.0503
  127DG     O19 2917   4.999   2.186   0.241  0.0885  0.5222 -0.0014
  127DG     H20 2918   5.210   2.230   0.227  0.3960  1.4850  2.0021
  127DG     H21 2919   5.096   2.325   0.130  1.7093  0.6661  0.2625
  127DG     H22 2920   5.055   2.107   0.052  0.0805  2.3553  0.2405
  127DG     H23 2921   4.895   2.175   0.059  0.7420 -1.6537 -3.3861
  128DG      C1 2922   3.245   2.785   4.412 -0.3928 -1.0381 -0.6332
  128DG      C2 2923   3.548   3.191   3.975 -0.5905  0.5221 -0.0248
  128DG      H3 2924   3.263   2.691   4.465 -0.6082 -0.9771 -0.4491
  128DG      H4 2925   3.296   2.863   4.470 -1.3394 -1.1976  0.4631
  128DG      H5 2926   3.295   2.789   4.316  2.1108 -2.2097  0.5342
  128DG      H6 2927   3.637   3.131   3.953 -0.9382 -0.3778  0.9375
  128DG      H7 2928   3.543   3.278   3.910  0.3596 -0.2720 -1.2123
  128DG      H8 2929   3.550   3.239   4.072 -0.0071 -1.7331  1.1587
  128DG      O9 2930   3.108   2.822   4.407  0.1310  0.4561  0.7229
  128DG     O10 2931   3.449   3.098   3.972  0.3163 -0.1471  0.4191
  128DG     C11 2932   3.066   2.930   4.330 -0.4412  0.1875 -0.1512
  128DG     C12 2933   3.324   3.151   4.018 -0.7023 -0.3390 -0.0407
  128DG     H13 2934   3.124   3.019   4.357 -1.1206  0.0696  1.8450
  128DG     H14 2935   2.960   2.941   4.351 -0.0118  1.0501  1.8382
  128DG     H15 2936   3.280   3.215   3.941 -2.2518 -0.9383  0.3131
  128DG     H16 2937   3.337   3.217   4.103 -0.0218  0.9592 -1.1071
  128DG     C17 2938   3.091   2.911   4.181 -0.4871  0.3915 -0.3139
  128DG     C18 2939   3.220   3.041   4.022  0.0491  0.6467 -0.2551
  128DG     O19 2940   3.215   2.973   4.143 -0.0941  0.6479  0.2430
  128DG     H20 2941   3.011   2.977   4.147 -0.8012  0.4413  0.5007
  128DG     H21 2942   3.076   2.808   4.148 -1.3009  0.3578  0.1301
  128DG     H22 2943   3.131   3.097   3.991 -0.1644  0.2338 -0.3898
  128DG     H23 2944   3.234   2.962   3.948 -1.3159 -0.8061  0.9661
  129DG      C1 2945   2.769   4.837   2.281 -0.2203 -0.1028 -0.6093
  129DG      C2 2946   2.784   4.985   1.732 -0.1786  0.1109  0.1970
  129DG      H3 2947   2.816   4.932   2.305 -4.0190  1.9290 -0.3849
  129DG      H4 2948   2.844   4.766   2.245  0.7677  0.7588 -0.3105
  129DG      H5 2949   2.735   4.795   2.375 -0.6594  1.1626 -0.1835
  129DG      H6 2950   2.827   5.084   1.721 -0.0071 -0.0955 -1.1842
  129DG      H7 2951   2.860   4.909   1.749 -0.1266  0.1011 -0.0915
  129DG      H8 2952   2.721   4.959   1.647 -3.9065  0.3872  2.6384
  129DG      O9 2953   2.664   4.868   2.191  0.8177 -0.2108  0.3466
  129DG     O10 2954   2.697   4.980   1.844  0.3792 -0.2798 -0.0009
  129DG     C11 2955   2.575   4.958   2.257 -0.0553 -0.5704  0.3051
  129DG     C12 2956   2.608   5.090   1.846  0.4433 -0.1132 -0.1029
  129DG     H13 2957   2.620   5.058   2.257 -1.7848  0.2519 -0.1760
  129DG     H14 2958   2.544   4.919   2.354  1.9616 -0.0588  1.2289
  129DG     H15 2959   2.528   5.091   1.772 -1.7137 -2.0397  2.0340
  129DG     H16 2960   2.662   5.184   1.832 -1.0058  0.7644 -0.0847
  129DG     C17 2961   2.454   4.976   2.160  0.1307  0.4265 -0.2468
  129DG     C18 2962   2.543   5.105   1.987 -0.4025  0.4362 -0.2173
  129DG     O19 2963   2.498   4.974   2.022 -0.6413  0.1811 -0.1152
  129DG     H20 2964   2.399   5.065   2.192 -2.2900 -0.6399 -1.2140
  129DG     H21 2965   2.384   4.894   2.173 -0.3954  0.9347  0.2035
  129DG     H22 2966   2.621   5.144   2.052 -0.2015 -0.4869  0.1132
  129DG     H23 2967   2.460   5.175   1.977 -2.0962 -1.2179  1.4311
  130DG      C1 2968   0.493   5.281   4.215 -0.4023  0.3384 -0.3951
  130DG      C2 2969   0.787   5.472   4.860 -0.3429 -0.3324  0.3482
  130DG      H3 2970   0.459   5.370   4.269  0.2539  1.0565 -1.1264
  130DG      H4 2971   0.423   5.204   4.245  0.6986  0.3424  2.5076
  130DG      H5 2972   0.516   5.295   4.109  0.7212 -0.7680 -0.3176
  130DG      H6 2973   0.789   5.580   4.872 -0.4953 -0.1762 -0.8783
  130DG      H7 2974   0.681   5.448   4.855 -0.6256  1.0071 -1.0544
  130DG      H8 2975   0.843   5.424   4.940  0.2715 -1.4289 -0.6995
  130DG      O9 2976   0.619   5.256   4.278 -0.2567 -0.1475  1.1065
  130DG     O10 2977   0.857   5.438   4.743  0.3693 -1.0519  0.3951
  130DG     C11 2978   0.708   5.366   4.267 -0.7066  0.0567 -0.0572
  130DG     C12 2979   0.873   5.303   4.730 -0.3078 -0.5946  0.3453
  130DG     H13 2980   0.665   5.455   4.312 -0.1987 -0.0920  0.7473
  130DG     H14 2981   0.721   5.392   4.162 -2.4053  0.4601 -0.2015
  130DG     H15 2982   0.780   5.249   4.747 -0.9525  0.0161 -1.0210
  130DG     H16 2983   0.955   5.260   4.788  0.1532 -0.5664 -0.2729
  130DG     C17 2984   0.829   5.322   4.357  0.4638 -0.8252 -0.5561
  130DG     C18 2985   0.903   5.285   4.581 -0.2029  0.1386 -0.4799
  130DG     O19 2986   0.805   5.345   4.500 -0.4021  0.4060  0.7283
  130DG     H20 2987   0.901   5.402   4.340  0.6863 -0.7602  0.5913
  130DG     H21 2988   0.878   5.227   4.333  0.6761 -1.0135  0.5426
  130DG     H22 2989   1.004   5.322   4.564  0.0551 -1.1087 -1.8774
  130DG     H23 2990   0.923   5.182   4.551  0.1538 -0.5452  1.9419
  131DG      C1 2991   0.887   1.081   4.209 -0.1377 -0.0699 -0.1614
  131DG      C2 2992   0.979   0.643   4.724 -0.2785  0.2755  0.3591
  131DG      H3 2993   0.888   1.159   4.285 -1.3236 -1.5175  1.4162
  131DG      H4 2994   0.805   1.093   4.138 -0.7638 -2.6342  0.0368
  131DG      H5 2995   0.983   1.076   4.156 -0.1432  0.7077 -0.2571
  131DG      H6 2996   1.047   0.717   4.768 -1.4155  1.8460 -0.4332
  131DG      H7 2997   0.874   0.671   4.737 -0.9035 -0.9477 -1.6399
  131DG      H8 2998   0.994   0.553   4.784  2.5028 -0.0947 -0.7564
  131DG      O9 2999   0.855   0.955   4.266  0.3309  0.4139  0.2723
  131DG     O10 3000   0.998   0.622   4.592 -0.1357  0.4096  0.0593
  131DG     C11 3001   0.721   0.944   4.310 -0.2783  0.5979 -0.4002
  131DG     C12 3002   0.895   0.543   4.527 -0.6586  0.6475 -1.0412
  131DG     H13 3003   0.640   0.963   4.240 -1.4278 -3.4935 -0.4485
  131DG     H14 3004   0.716   1.010   4.397  1.7278 -0.8177  0.8726
  131DG     H15 3005   0.872   0.455   4.586 -0.1999  0.2936 -1.3846
  131DG     H16 3006   0.941   0.501   4.438  1.0092  0.6963 -0.2304
  131DG     C17 3007   0.700   0.797   4.354  0.4137  0.1059 -0.3069
  131DG     C18 3008   0.772   0.620   4.485  0.3042  0.2356  0.2139
  131DG     O19 3009   0.806   0.744   4.429 -0.9672 -0.2029  0.2945
  131DG     H20 3010   0.669   0.740   4.267 -3.8580  1.8650 -0.1893
  131DG     H21 3011   0.608   0.814   4.410  0.8295  0.9617  0.1490
  131DG     H22 3012   0.709   0.556   4.424 -2.0857  2.0635  0.6184
  131DG     H23 3013   0.720   0.639   4.579  1.6440 -0.5679  1.1565
  132DG      C1 3014   1.294   3.647   2.891 -0.5997 -0.3128  0.3020
  132DG      C2 3015   0.965   4.339   3.182 -0.2843  0.4918 -0.0086
  132DG      H3 3016   1.217   3.577   2.921 -0.6481 -0.0843  0.7220
  132DG      H4 3017   1.390   3.628   2.939  1.1570  1.6771 -2.1809
  132DG      H5 3018   1.312   3.648   2.784 -1.9507 -2.2808 -0.0014
  132DG      H6 3019   0.896   4.352   3.266 -1.7894  0.0054 -1.1145
  132DG      H7 3020   1.062   4.324   3.230  0.0994  0.2637 -0.8386
  132DG      H8 3021   0.951   4.423   3.115  0.6727 -0.7801 -1.8780
  132DG      O9 3022   1.250   3.787   2.912  0.2108 -0.2714  0.4079
  132DG     O10 3023   0.951   4.220   3.109  0.1287  0.0588  0.6433
  132DG     C11 3024   1.241   3.827   3.044  0.4712 -0.4341 -1.0039
  132DG     C12 3025   0.957   4.094   3.185 -0.5260 -0.0676  0.1131
  132DG     H13 3026   1.338   3.813   3.093 -0.4228 -0.5397  0.8208
  132DG     H14 3027   1.162   3.773   3.096  0.0491  1.5587  0.5604
  132DG     H15 3028   0.872   4.079   3.252 -0.8136 -0.9736 -0.4457
  132DG     H16 3029   1.046   4.094   3.248 -0.5689  0.8788  0.1927
  132DG     C17 3030   1.210   3.975   3.053  0.7718  0.3531  0.8341
  132DG     C18 3031   0.969   3.980   3.082  0.4697 -0.6644 -0.1916
  132DG     O19 3032   1.086   4.007   2.998  0.3962 -0.2455 -0.1278
  132DG     H20 3033   1.287   4.029   2.997 -1.4303  0.6216 -2.1328
  132DG     H21 3034   1.211   4.005   3.158 -2.7693  0.8287  0.8549
  132DG     H22 3035   0.972   3.884   3.134 -2.5551  0.0458  1.5213
  132DG     H23 3036   0.878   3.972   3.023  0.1777  0.2852  0.1230
  133DG      C1 3037   0.142   3.407   3.100  0.0174  0.1532 -0.5279
  133DG      C2 3038   0.082   3.777   3.612  0.4410  0.2338 -0.6382
  133DG      H3 3039   0.107   3.305   3.117  0.7196 -0.0662 -0.3670
  133DG      H4 3040   0.227   3.414   3.032  0.6438  1.5251  0.3500
  133DG      H5 3041   0.050   3.457   3.069 -0.7051  0.6560  2.1965
  133DG      H6 3042   0.105   3.835   3.701  0.4166 -0.5403 -0.1201
  133DG      H7 3043  -0.022   3.764   3.583  0.3495 -0.8357  0.1128
  133DG      H8 3044   0.097   3.678   3.656  1.2637  0.6831  0.1194
  133DG      O9 3045   0.185   3.474   3.215  0.0186  0.6368  0.2749
  133DG     O10 3046   0.171   3.807   3.503  0.4566 -0.1294 -0.0118
  133DG     C11 3047   0.306   3.414   3.254 -0.5568  0.0053  0.1508
  133DG     C12 3048   0.310   3.799   3.524 -0.3590  0.0431  0.0215
  133DG     H13 3049   0.378   3.430   3.174  0.6653 -0.0366  1.2265
  133DG     H14 3050   0.299   3.305   3.256  1.1197 -0.1685 -1.4822
  133DG     H15 3051   0.333   3.837   3.624 -1.5938 -0.8347  0.6670
  133DG     H16 3052   0.370   3.861   3.457  0.5993 -0.3858  0.4615
  133DG     C17 3053   0.359   3.468   3.386 -0.3176 -0.0002  0.5385
  133DG     C18 3054   0.361   3.663   3.515 -0.0201 -0.2121 -0.5653
  133DG     O19 3055   0.325   3.605   3.385 -0.6019  0.0963 -0.2900
  133DG     H20 3056   0.467   3.483   3.388 -0.7201  4.8466 -0.7580
  133DG     H21 3057   0.320   3.413   3.471 -0.5842 -0.9004 -0.1467
  133DG     H22 3058   0.469   3.671   3.522  0.0480 -1.6911  0.8823
  133DG     H23 3059   0.311   3.609   3.596 -0.6841  2.1294  0.6945
  134DG      C1 3060   2.991   0.838   3.452 -0.7728 -0.3795  0.0537
  134DG      C2 3061   2.675   0.687   4.026  0.4063 -0.3596 -0.2340
  134DG      H3 3062   2.906   0.899   3.420  0.5281  1.5693  0.1286
  134DG      H4 3063   3.008   0.756   3.383  0.4631 -0.5878  0.5824
  134DG      H5 3064   3.073   0.910   3.453 -0.9813 -0.1316  1.2216
  134DG      H6 3065   2.613   0.776   4.028  1.2648  0.2536 -0.5086
  134DG      H7 3066   2.640   0.612   3.955 -0.2700 -0.2346 -0.0372
  134DG      H8 3067   2.682   0.649   4.128  2.7600  0.0593 -0.1888
  134DG      O9 3068   2.983   0.787   3.580 -0.9630 -0.6240  0.1055
  134DG     O10 3069   2.800   0.732   3.978  0.3107 -0.8948  0.3832
  134DG     C11 3070   3.108   0.743   3.635 -1.1151 -0.2630 -0.0015
  134DG     C12 3071   2.907   0.663   4.044 -0.3217  0.2502  0.0618
  134DG     H13 3072   3.195   0.788   3.585 -0.4897 -0.7764  0.6119
  134DG     H14 3073   3.130   0.637   3.620  0.7228 -0.0641  0.9841
  134DG     H15 3074   2.897   0.555   4.039 -0.0426  0.2202  0.1082
  134DG     H16 3075   2.900   0.693   4.149 -1.3669 -1.2613  0.4435
  134DG     C17 3076   3.134   0.770   3.782 -0.4144 -0.1763 -0.1555
  134DG     C18 3077   3.039   0.723   3.986  0.5857  0.4309  0.0991
  134DG     O19 3078   3.030   0.711   3.849  0.1125  0.5075 -0.1730
  134DG     H20 3079   3.120   0.877   3.791  2.5128  0.2537  0.1625
  134DG     H21 3080   3.234   0.736   3.812 -0.0535  0.1652 -0.9451
  134DG     H22 3081   3.035   0.828   4.017 -0.4907  0.0479  1.3841
  134DG     H23 3082   3.125   0.665   4.018 -0.0268 -1.4425 -1.4812
  135DG      C1 3083   0.221   1.059   0.779 -0.5824 -0.8128 -0.2095
  135DG      C2 3084  -0.033   1.140   1.390  0.4054  0.8134 -0.8002
  135DG      H3 3085   0.273   1.106   0.697 -0.4810  2.9657  1.8027
  135DG      H4 3086   0.115   1.064   0.752 -0.8278  1.5096  0.9551
  135DG      H5 3087   0.251   0.955   0.789 -0.3756 -0.6945  0.4478
  135DG      H6 3088   0.014   1.178   1.481  0.6907  0.1218 -0.6540
  135DG      H7 3089  -0.141   1.148   1.381  0.5462  1.7866 -2.0575
  135DG      H8 3090  -0.011   1.034   1.383 -0.5511  0.5959 -0.7021
  135DG      O9 3091   0.238   1.138   0.898 -0.0822  0.1689 -0.5541
  135DG     O10 3092   0.041   1.198   1.287 -0.1786 -0.6710  0.0501
  135DG     C11 3093   0.245   1.279   0.865  0.3856 -0.6101  0.0302
  135DG     C12 3094   0.019   1.340   1.286  0.3844  0.6134 -0.1550
  135DG     H13 3095   0.164   1.327   0.811 -0.1864 -0.6362  0.8496
  135DG     H14 3096   0.338   1.302   0.813  0.4869  0.6842  0.7421
  135DG     H15 3097   0.025   1.375   1.389 -0.8979 -0.9564  0.4966
  135DG     H16 3098  -0.081   1.368   1.252 -0.1426 -1.5643 -0.5349
  135DG     C17 3099   0.258   1.355   1.004  0.3313 -0.8572  0.3464
  135DG     C18 3100   0.127   1.398   1.200 -0.8183 -0.0418 -0.1754
  135DG     O19 3101   0.139   1.329   1.074  0.0453  0.1250 -0.0320
  135DG     H20 3102   0.261   1.463   0.989 -0.1191 -1.0026 -0.9763
  135DG     H21 3103   0.346   1.327   1.061  0.6550  1.4559  1.0758
  135DG     H22 3104   0.121   1.507   1.192  0.2377 -0.0708 -1.8021
  135DG     H23 3105   0.220   1.371   1.251 -1.5821 -0.5468  0.9654
  136DG      C1 3106   3.234   5.297   1.911  0.2996  0.0845 -0.2503
  136DG      C2 3107   3.643   5.970   2.016  0.9392 -0.5338  0.1537
  136DG      H3 3108   3.142   5.269   1.860  0.1717  0.1866 -0.0757
  136DG      H4 3109   3.239   5.256   2.012  0.9041 -0.8979 -0.6656
  136DG      H5 3110   3.309   5.248   1.849  1.2707  1.9057 -0.6054
  136DG      H6 3111   3.644   5.991   2.123 -0.9023  0.4405  0.0132
  136DG      H7 3112   3.735   5.922   1.981  1.4737 -0.3309  1.2209
  136DG      H8 3113   3.634   6.070   1.974 -0.0552  0.4351  2.4893
  136DG      O9 3114   3.271   5.430   1.893 -0.0084  0.4325 -0.4845
  136DG     O10 3115   3.524   5.901   1.986 -0.5351  0.3542 -0.2002
  136DG     C11 3116   3.179   5.527   1.955  0.0465  0.5130  1.0179
  136DG     C12 3117   3.505   5.887   1.846  0.4382  0.5140  0.1150
  136DG     H13 3118   3.202   5.527   2.061 -2.8024 -0.3051  1.7366
  136DG     H14 3119   3.072   5.510   1.941  0.4987  0.3683 -3.7605
  136DG     H15 3120   3.565   5.805   1.806  0.2970  0.1574  0.6163
  136DG     H16 3121   3.522   5.983   1.797  0.3926  0.1537 -0.6131
  136DG     C17 3122   3.208   5.664   1.887 -0.0203 -0.9188 -0.0178
  136DG     C18 3123   3.358   5.845   1.850  0.1868  0.2755 -0.5521
  136DG     O19 3124   3.341   5.710   1.907 -0.1473  0.0137  0.2835
  136DG     H20 3125   3.130   5.720   1.939  0.3749  1.8831 -2.2099
  136DG     H21 3126   3.183   5.648   1.782  1.3823 -0.9992 -0.3613
  136DG     H22 3127   3.290   5.916   1.897  0.7455  1.0963 -0.9498
  136DG     H23 3128   3.326   5.830   1.747 -0.8591  1.6290 -0.4432
  137DG      C1 3129   1.601   5.349   4.582 -0.0172 -0.4210 -0.1464
  137DG      C2 3130   2.147   5.452   4.335  0.7582 -0.0549 -0.1032
  137DG      H3 3131   1.648   5.447   4.573 -0.1580 -0.3304  0.1005
  137DG      H4 3132   1.673   5.270   4.560  1.4966  0.8853 -0.0303
  137DG      H5 3133   1.576   5.338   4.688 -1.7391 -0.7258 -0.5561
  137DG      H6 3134   2.143   5.558   4.360 -4.0732  0.1798 -1.0293
  137DG      H7 3135   2.194   5.394   4.414  0.6609 -0.5093 -0.3711
  137DG      H8 3136   2.201   5.425   4.244 -1.4094  0.5924 -1.6560
  137DG      O9 3137   1.493   5.346   4.498  0.4976 -0.4701  0.0313
  137DG     O10 3138   2.009   5.411   4.312 -0.3878  0.2310 -0.1660
  137DG     C11 3139   1.526   5.395   4.364 -0.3696 -0.2356  1.1955
  137DG     C12 3140   1.981   5.270   4.291 -0.1968 -0.4970 -0.1876
  137DG     H13 3141   1.560   5.497   4.374 -0.3276 -0.1390  0.2156
  137DG     H14 3142   1.441   5.390   4.295  1.0896  1.0766 -0.7944
  137DG     H15 3143   1.988   5.203   4.378 -3.0521 -1.7020 -0.7537
  137DG     H16 3144   2.041   5.242   4.205 -3.3072 -0.6908 -2.4569
  137DG     C17 3145   1.618   5.311   4.275 -0.5485  0.2630  0.0100
  137DG     C18 3146   1.838   5.259   4.230 -0.1893  0.6627 -0.0189
  137DG     O19 3147   1.754   5.332   4.313 -0.5462  0.3348 -0.3211
  137DG     H20 3148   1.615   5.337   4.169 -0.3715  0.5937  0.0854
  137DG     H21 3149   1.586   5.207   4.282 -0.3973  0.1863 -0.4404
  137DG     H22 3150   1.834   5.302   4.130 -0.6145  1.7959  0.4717
  137DG     H23 3151   1.830   5.151   4.219 -0.7153  0.2923  3.1285
  138DG      C1 3152   2.309   4.069   1.547  0.5904  0.7405  1.0074
  138DG      C2 3153   2.515   3.865   2.154 -0.1908  0.6399 -0.9089
  138DG      H3 3154   2.386   4.089   1.472  0.6407  0.6971  1.0476
  138DG      H4 3155   2.230   4.137   1.513 -0.2978 -0.3889  0.7654
  138DG      H5 3156   2.282   3.964   1.539 -2.0415  1.5015 -2.1754
  138DG      H6 3157   2.414   3.878   2.192 -0.1141 -1.6016  0.2648
  138DG      H7 3158   2.519   3.777   2.089 -1.1707  0.8186 -1.2345
  138DG      H8 3159   2.573   3.853   2.245 -2.3164  1.6544  0.6604
  138DG      O9 3160   2.360   4.109   1.676  0.7793  0.3840 -0.6447
  138DG     O10 3161   2.547   3.978   2.076  0.6691  0.2892 -0.1626
  138DG     C11 3162   2.383   4.244   1.698 -0.2474 -0.1482 -0.4736
  138DG     C12 3163   2.546   4.101   2.144  0.9943  0.3117  0.1462
  138DG     H13 3164   2.295   4.300   1.729  1.2223  2.4134 -0.6021
  138DG     H14 3165   2.429   4.304   1.620  0.1159  0.4312  0.1702
  138DG     H15 3166   2.632   4.102   2.210  0.2997  2.0498  1.0961
  138DG     H16 3167   2.456   4.096   2.205  0.2545 -1.6725 -1.0139
  138DG     C17 3168   2.485   4.257   1.823  0.2116 -0.1952  0.2255
  138DG     C18 3169   2.539   4.216   2.043 -0.1662  0.0273 -1.0673
  138DG     O19 3170   2.443   4.191   1.942 -0.0894  0.2603 -0.4955
  138DG     H20 3171   2.499   4.362   1.845 -2.7121  0.7133 -1.6594
  138DG     H21 3172   2.579   4.216   1.787 -0.3266  0.2641 -1.7886
  138DG     H22 3173   2.534   4.315   2.088 -0.3349 -0.3214 -0.2992
  138DG     H23 3174   2.637   4.217   1.995  0.1837 -1.4713 -0.4604
  139DG      C1 3175   4.493   1.219   1.161  0.9582 -0.3544 -0.5120
  139DG      C2 3176   4.996   1.172   0.663 -0.4317 -0.8176 -0.4607
  139DG      H3 3177   4.514   1.323   1.186  0.4454 -0.3094 -0.2454
  139DG      H4 3178   4.565   1.163   1.221 -0.6406 -1.8754  0.0660
  139DG      H5 3179   4.392   1.195   1.193  0.8239  0.0321 -0.6374
  139DG      H6 3180   5.061   1.191   0.748 -0.3330 -2.8641 -0.0258
  139DG      H7 3181   5.017   1.080   0.609 -0.3794 -1.0970  0.0347
  139DG      H8 3182   5.007   1.262   0.601  0.7245  0.3539  1.3663
  139DG      O9 3183   4.522   1.189   1.022 -0.4972 -0.2197 -0.1569
  139DG     O10 3184   4.872   1.150   0.712 -0.3386  0.4585 -0.2174
  139DG     C11 3185   4.444   1.265   0.931 -0.9854  0.2994 -0.0566
  139DG     C12 3186   4.780   1.164   0.603 -1.0239  0.4259  0.1228
  139DG     H13 3187   4.458   1.373   0.935 -3.4998  0.6428  1.7562
  139DG     H14 3188   4.339   1.247   0.954 -0.3850 -1.6966  1.3225
  139DG     H15 3189   4.803   1.096   0.522  0.1698  1.3003 -0.3013
  139DG     H16 3190   4.772   1.268   0.570 -1.1140 -0.0303 -1.3748
  139DG     C17 3191   4.472   1.217   0.787  0.2835 -0.5409  0.1838
  139DG     C18 3192   4.635   1.138   0.636  0.6436  0.2414 -0.5790
  139DG     O19 3193   4.612   1.204   0.760  1.1940 -0.0456  0.3334
  139DG     H20 3194   4.433   1.275   0.703  4.4089  0.2712 -1.3782
  139DG     H21 3195   4.415   1.124   0.785 -0.4330 -0.1002 -0.5497
  139DG     H22 3196   4.571   1.183   0.560 -1.0298  0.6267  0.9831
  139DG     H23 3197   4.610   1.033   0.649  1.2323  0.0707 -0.7907
  140DG      C1 3198   2.544   3.825   1.656  0.0737 -0.8310 -0.0657
  140DG      C2 3199   2.146   4.157   2.034 -0.7204  0.3553  0.3558
  140DG      H3 3200   2.549   3.759   1.569 -1.1776 -2.2077  0.8534
  140DG      H4 3201   2.630   3.814   1.722  0.3626  0.7260 -0.1649
  140DG      H5 3202   2.541   3.929   1.624  1.9455 -0.5737  0.4843
  140DG      H6 3203   2.215   4.185   2.113  0.1961  1.5894 -0.8308
  140DG      H7 3204   2.162   4.239   1.964  1.6003  1.3652  1.9511
  140DG      H8 3205   2.042   4.174   2.062 -1.1316  1.9368 -1.8893
  140DG      O9 3206   2.426   3.795   1.729  0.6016 -0.3164  0.4470
  140DG     O10 3207   2.169   4.020   1.997 -0.4409  0.0972 -0.3715
  140DG     C11 3208   2.424   3.668   1.801  0.1087  0.1402 -0.2248
  140DG     C12 3209   2.139   3.919   2.087 -0.6227  0.2559  0.0838
  140DG     H13 3210   2.507   3.669   1.872  2.8139  1.3636 -3.1669
  140DG     H14 3211   2.446   3.583   1.737 -1.1297 -1.9962  2.0514
  140DG     H15 3212   2.046   3.937   2.140 -1.5404  0.0190 -1.3877
  140DG     H16 3213   2.201   3.942   2.173  0.7115  1.2552 -1.0894
  140DG     C17 3214   2.300   3.653   1.877  0.2382  0.1212  0.0762
  140DG     C18 3215   2.166   3.777   2.017 -0.0706  0.9285 -0.1466
  140DG     O19 3216   2.275   3.776   1.930  0.1572  0.3550 -0.0900
  140DG     H20 3217   2.304   3.579   1.957  0.4032  0.7036  0.6100
  140DG     H21 3218   2.220   3.638   1.804  0.3769 -0.1883 -0.0139
  140DG     H22 3219   2.174   3.712   2.105  1.1519  0.7939 -0.3447
  140DG     H23 3220   2.086   3.735   1.956  1.1767 -1.2200 -0.4046
  141DG      C1 3221   1.717   1.907   4.898 -0.5398  0.2178  0.5026
  141DG      C2 3222   1.428   1.292   4.916 -0.8753  0.5199 -0.8482
  141DG      H3 3223   1.817   1.865   4.893 -0.0945  1.2816  0.3416
  141DG      H4 3224   1.729   2.008   4.935 -1.9563  0.4317  0.4234
  141DG      H5 3225   1.664   1.909   4.802 -1.2990 -0.7894  0.8791
  141DG      H6 3226   1.355   1.311   4.838 -0.6980  0.1325 -1.1100
  141DG      H7 3227   1.533   1.283   4.889  0.0349 -0.3791  2.4510
  141DG      H8 3228   1.399   1.193   4.950 -1.2699  0.8739 -0.1031
  141DG      O9 3229   1.646   1.835   4.994  0.5616 -0.5176 -0.5223
  141DG     O10 3230   1.416   1.385   5.021  0.1749  0.1714 -0.2494
  141DG     C11 3231   1.693   1.822   5.124 -0.9020 -0.5052  0.1726
  141DG     C12 3232   1.505   1.366   5.132 -0.2176  0.4983 -0.5456
  141DG     H13 3233   1.694   1.921   5.171 -1.2753  0.2481 -1.3396
  141DG     H14 3234   1.795   1.783   5.132 -0.4108  1.0366  2.9893
  141DG     H15 3235   1.601   1.329   5.096 -1.0978 -4.9017  1.6735
  141DG     H16 3236   1.464   1.287   5.195 -0.3846 -0.3990 -1.7420
  141DG     C17 3237   1.616   1.718   5.209  0.1448  0.7312 -0.5403
  141DG     C18 3238   1.523   1.491   5.219  0.4203  0.5408  0.5101
  141DG     O19 3239   1.600   1.589   5.148  0.0377  0.5188  0.2616
  141DG     H20 3240   1.520   1.761   5.237  0.1851  0.8131 -0.5267
  141DG     H21 3241   1.673   1.704   5.302  0.0228  2.3608 -0.1921
  141DG     H22 3242   1.426   1.525   5.254  0.5192  0.3482  0.9954
  141DG     H23 3243   1.583   1.467   5.308  1.8815  2.8289  0.2235
  142DG      C1 3244   2.457   2.820   3.036 -0.1248  0.4274 -0.7616
  142DG      C2 3245   1.824   2.885   2.711 -0.0275  0.4083 -0.3072
  142DG      H3 3246   2.516   2.799   3.125 -2.2307 -0.2736  0.5272
  142DG      H4 3247   2.426   2.924   3.048  1.3843  1.0054 -1.5028
  142DG      H5 3248   2.524   2.820   2.949 -1.6736 -0.0326 -1.9960
  142DG      H6 3249   1.738   2.842   2.659 -0.5827 -0.5839  1.3429
  142DG      H7 3250   1.804   2.990   2.734 -0.9319  0.1576  0.1230
  142DG      H8 3251   1.909   2.879   2.643  0.6737 -0.8592  0.6330
  142DG      O9 3252   2.345   2.735   3.024 -0.3450  0.1924 -0.5091
  142DG     O10 3253   1.858   2.834   2.841  0.7184 -0.4531 -0.1728
  142DG     C11 3254   2.260   2.723   3.136 -0.6021  0.4766 -0.1994
  142DG     C12 3255   1.901   2.701   2.819 -0.2294 -0.0399  0.5955
  142DG     H13 3256   2.230   2.821   3.173  0.9461 -0.5415  4.4757
  142DG     H14 3257   2.306   2.676   3.223 -1.2540  1.0933  0.4944
  142DG     H15 3258   1.970   2.685   2.736 -0.3816  1.0307  0.2526
  142DG     H16 3259   1.825   2.627   2.792  0.1539 -0.4710  0.6744
  142DG     C17 3260   2.142   2.639   3.086 -0.2879  0.5239  0.0264
  142DG     C18 3261   1.955   2.641   2.947  0.2499 -0.6235 -0.0219
  142DG     O19 3262   2.068   2.714   2.993 -0.2003  0.0359 -0.0942
  142DG     H20 3263   2.067   2.619   3.162 -0.2951  0.8026  0.0913
  142DG     H21 3264   2.173   2.552   3.028 -0.9270 -0.4819  1.1502
  142DG     H22 3265   1.882   2.637   3.028  0.5142 -1.2518  0.1934
  142DG     H23 3266   1.982   2.537   2.925 -1.7131 -1.0308 -0.7122
  143DG      C1 3267   3.351   4.182   3.831 -0.0922  0.0977 -0.3995
  143DG      C2 3268   3.268   4.858   3.966  0.0616 -0.8963 -0.4395
  143DG      H3 3269   3.443   4.124   3.842 -0.6429 -1.2528 -2.3823
  143DG      H4 3270   3.283   4.114   3.779  0.3753 -1.8026  1.3000
  143DG      H5 3271   3.313   4.200   3.932 -0.6158 -1.0468 -0.3716
  143DG      H6 3272   3.370   4.823   3.954  1.3091  1.4527  2.3221
  143DG      H7 3273   3.269   4.967   3.962  0.3461 -0.7450  1.9845
  143DG      H8 3274   3.248   4.836   4.071  0.7958 -0.1462 -0.1389
  143DG      O9 3275   3.364   4.308   3.769 -0.1960  0.1800 -0.1999
  143DG     O10 3276   3.185   4.787   3.878 -0.1128 -0.6350  0.2846
  143DG     C11 3277   3.454   4.385   3.852  0.2816  0.2739 -0.2904
  143DG     C12 3278   3.227   4.795   3.747 -0.0674  0.8265  0.6754
  143DG     H13 3279   3.555   4.346   3.839 -0.2444 -1.0317 -0.6256
  143DG     H14 3280   3.431   4.390   3.958 -0.0413 -2.0162 -0.1943
  143DG     H15 3281   3.247   4.901   3.729  4.1443  0.0852 -0.0301
  143DG     H16 3282   3.148   4.765   3.678  0.6751 -0.8517  0.5106
  143DG     C17 3283   3.462   4.526   3.793  0.7098  0.0629  0.0690
  143DG     C18 3284   3.358   4.716   3.723 -0.5143  0.3087 -0.3780
  143DG     O19 3285   3.341   4.595   3.786 -0.0253 -0.2354  0.3136
  143DG     H20 3286   3.505   4.518   3.694  1.9859 -2.3327  0.7467
  143DG     H21 3287   3.534   4.589   3.846  1.8551 -0.5724 -0.7080
  143DG     H22 3288   3.380   4.711   3.616 -0.1712  1.5195 -0.3786
  143DG     H23 3289   3.445   4.772   3.758  2.0033 -0.7387 -4.2755
  144DG      C1 3290   2.022   2.618   4.944 -0.6651 -0.5535  0.0104
  144DG      C2 3291   1.704   2.636   5.516  0.8866  0.2117 -0.0375
  144DG      H3 3292   2.016   2.560   4.851  1.2727 -1.8626  0.6305
  144DG      H4 3293   2.098   2.576   5.010 -2.1966 -1.9560  0.9862
  144DG      H5 3294   2.064   2.711   4.907 -2.0083 -0.9408 -2.7574
  144DG      H6 3295   1.623   2.589   5.573  1.3321 -0.6263 -0.0766
  144DG      H7 3296   1.785   2.574   5.554 -0.2412 -2.2771 -1.4592
  144DG      H8 3297   1.709   2.739   5.551  1.3797  0.7557 -1.6304
  144DG      O9 3298   1.896   2.625   5.002  0.4544 -0.2118  0.4067
  144DG     O10 3299   1.684   2.625   5.375  0.2731  0.3945 -0.3983
  144DG     C11 3300   1.800   2.700   4.924 -0.1685  0.0980  0.1889
  144DG     C12 3301   1.584   2.713   5.337  0.3989  0.3916 -0.0950
  144DG     H13 3302   1.806   2.673   4.819  0.2086 -0.6811  0.3946
  144DG     H14 3303   1.828   2.805   4.919  0.2509  0.1228  2.2120
  144DG     H15 3304   1.601   2.817   5.365  2.0552  0.0965  0.1070
  144DG     H16 3305   1.486   2.685   5.377  0.1043  0.5031 -0.7368
  144DG     C17 3306   1.662   2.669   4.979  0.6974  0.3806 -0.7585
  144DG     C18 3307   1.562   2.681   5.191 -0.5194 -0.2596  0.4164
  144DG     O19 3308   1.680   2.664   5.122 -0.1878 -0.6119  0.5601
  144DG     H20 3309   1.623   2.574   4.945 -0.5584  0.0033  1.4956
  144DG     H21 3310   1.593   2.748   4.948 -1.3192 -1.9550 -2.6247
  144DG     H22 3311   1.503   2.593   5.166  0.2548 -0.1425 -2.0222
  144DG     H23 3312   1.512   2.771   5.156 -0.9515 -0.7389 -0.2244
  145DG      C1 3313   4.291   0.382   3.172 -0.6457 -0.6452  0.0039
  145DG      C2 3314   3.576   0.258   3.069 -0.0656  0.1136  0.0697
  145DG      H3 3315   4.348   0.331   3.094 -1.5238 -2.4918  0.5233
  145DG      H4 3316   4.304   0.321   3.261 -0.2644 -1.0259 -0.3086
  145DG      H5 3317   4.336   0.479   3.192  1.2100 -1.6161  0.7670
  145DG      H6 3318   3.638   0.193   3.007 -0.1409  0.2716 -0.1714
  145DG      H7 3319   3.536   0.189   3.143  2.6184 -0.7250  0.8474
  145DG      H8 3320   3.487   0.291   3.014  1.1636 -0.0757 -2.1203
  145DG      O9 3321   4.159   0.404   3.128 -0.6492 -0.4628 -0.4394
  145DG     O10 3322   3.653   0.365   3.117  0.1605  0.9386  0.4016
  145DG     C11 3323   4.068   0.429   3.236 -0.1743 -0.8360  0.4068
  145DG     C12 3324   3.620   0.405   3.248 -0.3897  0.2006 -0.1783
  145DG     H13 3325   4.110   0.513   3.291 -0.9926 -0.3438  0.3057
  145DG     H14 3326   4.061   0.343   3.304  0.6016 -0.4416  1.0006
  145DG     H15 3327   3.630   0.320   3.317  2.0815 -0.5645 -1.3605
  145DG     H16 3328   3.515   0.434   3.261 -0.5719 -0.9965  1.3824
  145DG     C17 3329   3.936   0.470   3.191 -0.3126  0.1444 -0.1990
  145DG     C18 3330   3.725   0.508   3.299 -0.1206 -0.1514 -0.0727
  145DG     O19 3331   3.861   0.473   3.315  0.0498  0.2626  0.0463
  145DG     H20 3332   3.891   0.396   3.125 -1.0925 -0.1992  0.6880
  145DG     H21 3333   3.924   0.562   3.133 -0.1651  0.9968  1.0822
  145DG     H22 3334   3.721   0.602   3.244  0.0128 -0.7010 -1.0480
  145DG     H23 3335   3.698   0.527   3.403  2.1936  0.5474  0.4655
  146DG      C1 3336   0.819   3.289   2.484  0.3439  0.6303  0.4441
  146DG      C2 3337   0.445   2.725   2.772 -0.4153  0.2339 -0.0200
  146DG      H3 3338   0.809   3.257   2.380  1.7418  1.0937  0.1438
  146DG      H4 3339   0.911   3.349   2.478  0.0523  0.9822 -1.1142
  146DG      H5 3340   0.731   3.345   2.513  0.5933  2.0269 -1.3242
  146DG      H6 3341   0.440   2.632   2.830  2.5922  1.0591  1.7897
  146DG      H7 3342   0.362   2.789   2.799 -0.9477 -0.8327  0.9945
  146DG      H8 3343   0.428   2.686   2.672  0.0082  1.1405 -0.4469
  146DG      O9 3344   0.837   3.170   2.569 -0.2902  0.1515 -0.3560
  146DG     O10 3345   0.577   2.787   2.777 -0.0050 -0.0880 -0.2517
  146DG     C11 3346   0.921   3.068   2.505  0.0720 -1.1162  0.3270
  146DG     C12 3347   0.675   2.704   2.713 -0.0676  0.9524 -0.0361
  146DG     H13 3348   1.016   3.117   2.486  0.1925 -0.2983  2.6764
  146DG     H14 3349   0.885   3.049   2.404  2.7619 -0.9246 -0.7390
  146DG     H15 3350   0.651   2.676   2.611  0.8917 -0.1134  0.0147
  146DG     H16 3351   0.675   2.612   2.772 -3.5179  1.1692  0.5178
  146DG     C17 3352   0.932   2.953   2.613 -0.4258 -0.0574  0.1009
  146DG     C18 3353   0.817   2.763   2.707  0.2864  0.2380 -0.2075
  146DG     O19 3354   0.810   2.878   2.627  0.0241 -0.5638 -0.0766
  146DG     H20 3355   0.961   2.995   2.710 -0.9298 -0.3316  0.3762
  146DG     H21 3356   0.998   2.877   2.572 -3.0046 -1.1032 -2.4794
  146DG     H22 3357   0.861   2.777   2.806  2.0917 -2.6100 -0.4930
  146DG     H23 3358   0.882   2.684   2.672  0.5794 -0.0107  0.8540
  147DG      C1 3359   2.680   5.479   1.204  0.2057  0.4975 -0.6028
  147DG      C2 3360   3.283   5.518   1.529  0.5033 -0.3847 -0.6692
  147DG      H3 3361   2.636   5.426   1.119 -1.0959 -0.0287  0.3552
  147DG      H4 3362   2.708   5.580   1.177  1.2696 -0.0388 -1.6167
  147DG      H5 3363   2.613   5.474   1.290  2.3428 -0.5021  1.1080
  147DG      H6 3364   3.291   5.620   1.491 -1.5630 -0.0727 -0.3393
  147DG      H7 3365   3.213   5.520   1.612  1.9810  1.6872  0.6208
  147DG      H8 3366   3.380   5.495   1.573  0.1467  0.0559  0.3744
  147DG      O9 3367   2.802   5.418   1.231 -0.0822 -0.5569 -0.0669
  147DG     O10 3368   3.220   5.445   1.426  0.1331  0.0617 -0.1004
  147DG     C11 3369   2.791   5.277   1.246  0.0919 -0.1069  0.5494
  147DG     C12 3370   3.213   5.307   1.464  0.5250 -0.3490  0.3957
  147DG     H13 3371   2.725   5.234   1.171  0.1077  0.5048  0.1747
  147DG     H14 3372   2.733   5.247   1.332 -0.5306  2.7033  1.1955
  147DG     H15 3373   3.164   5.307   1.561  0.7915 -2.2814  0.5528
  147DG     H16 3374   3.312   5.265   1.484  0.1548 -0.5350  1.9679
  147DG     C17 3375   2.931   5.217   1.241  0.7102  0.1437 -0.2111
  147DG     C18 3376   3.140   5.227   1.357 -0.6236 -0.5213 -0.0711
  147DG     O19 3377   3.009   5.268   1.350  0.3747  0.3717 -0.3543
  147DG     H20 3378   2.978   5.244   1.147  0.0338  1.8541 -0.0800
  147DG     H21 3379   2.928   5.108   1.244  1.6004  0.1294  2.2946
  147DG     H22 3380   3.195   5.240   1.264  3.3546 -2.2166  1.8099
  147DG     H23 3381   3.141   5.124   1.393  0.5663  0.5860  3.4825
  148DG      C1 3382   3.329   4.505   4.178  0.3743  0.2230  0.7344
  148DG      C2 3383   3.044   4.434   3.604  0.5565 -0.0267 -0.1541
  148DG      H3 3384   3.402   4.429   4.151  0.4315  0.7749 -0.7933
  148DG      H4 3385   3.326   4.522   4.286  0.8630 -1.7478  1.0959
  148DG      H5 3386   3.368   4.596   4.131  0.0545 -0.3053 -0.5776
  148DG      H6 3387   3.004   4.533   3.583 -1.4710 -0.1816  2.4859
  148DG      H7 3388   3.153   4.439   3.604  0.5305  0.9659 -1.5097
  148DG      H8 3389   3.010   4.372   3.521  0.9527  1.2869 -1.3408
  148DG      O9 3390   3.204   4.461   4.117 -0.3245 -0.7711  0.3693
  148DG     O10 3391   2.987   4.402   3.728 -0.1183 -0.2630 -0.7695
  148DG     C11 3392   3.151   4.350   4.176 -0.2786 -0.1312  0.5448
  148DG     C12 3393   3.003   4.265   3.755 -0.0765  0.2089 -0.3260
  148DG     H13 3394   3.144   4.351   4.285  0.5116 -0.4919  0.6023
  148DG     H14 3395   3.223   4.269   4.161  0.4630  0.4192  1.0679
  148DG     H15 3396   3.105   4.236   3.730 -0.4993 -1.8524  0.1897
  148DG     H16 3397   2.941   4.201   3.691  0.6097 -0.8590  0.0657
  148DG     C17 3398   3.014   4.322   4.109 -0.5424  0.2817 -0.1850
  148DG     C18 3399   2.971   4.233   3.902  0.0448  0.1430 -0.4374
  148DG     O19 3400   3.050   4.322   3.974 -0.1756  0.0332 -0.2766
  148DG     H20 3401   2.941   4.397   4.141 -0.1437  0.1439  1.0900
  148DG     H21 3402   2.978   4.227   4.149 -1.4765  0.5644 -0.3099
  148DG     H22 3403   2.865   4.248   3.921  0.1197 -0.5610  0.6806
  148DG     H23 3404   2.990   4.125   3.906 -2.2046 -0.3209 -1.2251
  149DG      C1 3405   3.584   0.594   0.010 -0.0712 -0.1360  0.4623
  149DG      C2 3406   3.495   0.691   0.674 -0.6422 -0.1649  0.0657
  149DG      H3 3407   3.531   0.506   0.048 -2.2392  0.4258 -1.0860
  149DG      H4 3408   3.681   0.555  -0.021  0.3121  0.2147  1.1819
  149DG      H5 3409   3.519   0.630  -0.070 -0.6176  2.8990  2.1404
  149DG      H6 3410   3.530   0.591   0.700 -0.6745 -0.1403  0.2053
  149DG      H7 3411   3.500   0.754   0.763 -2.7444 -2.1829  1.7279
  149DG      H8 3412   3.389   0.675   0.652 -0.3767 -0.1923 -1.2254
  149DG      O9 3413   3.603   0.692   0.114  0.4889  0.0913  0.2568
  149DG     O10 3414   3.557   0.749   0.559 -0.1184  0.1924 -0.6583
  149DG     C11 3415   3.727   0.759   0.096  0.4768 -0.2926 -0.1636
  149DG     C12 3416   3.697   0.716   0.573 -0.2644 -0.1516  0.2913
  149DG     H13 3417   3.741   0.817   0.004 -1.5103  1.0283  0.3088
  149DG     H14 3418   3.810   0.689   0.092 -1.4243 -2.6802 -0.3238
  149DG     H15 3419   3.714   0.609   0.564 -0.8668 -0.1933 -0.4531
  149DG     H16 3420   3.736   0.750   0.669  1.1099  0.1927 -0.3711
  149DG     C17 3421   3.748   0.845   0.223  0.2504  0.3773 -0.1751
  149DG     C18 3422   3.762   0.807   0.467 -0.1013 -0.7426  0.4569
  149DG     O19 3423   3.701   0.776   0.340  0.6153  0.1584  0.0356
  149DG     H20 3424   3.695   0.940   0.217  0.9882  0.9018  1.1928
  149DG     H21 3425   3.851   0.879   0.236 -0.0894  1.2061  0.3916
  149DG     H22 3426   3.750   0.914   0.484  0.2753 -0.7950  1.0559
  149DG     H23 3427   3.869   0.794   0.451  0.0809  1.5265 -0.6499
  150DG      C1 3428   3.738   1.871   1.003 -0.2846  0.1724  0.7209
  150DG      C2 3429   3.280   2.352   0.718  0.6225  0.5713 -0.9986
  150DG      H3 3430   3.837   1.888   0.959 -0.3981  0.3084  0.5165
  150DG      H4 3431   3.667   1.828   0.932  1.4844 -2.0344  0.1444
  150DG      H5 3432   3.750   1.791   1.076 -0.1743  0.1496  0.6781
  150DG      H6 3433   3.200   2.294   0.673  0.8926 -1.4899  0.9834
  150DG      H7 3434   3.254   2.458   0.717  1.6968  0.8389 -1.5907
  150DG      H8 3435   3.367   2.340   0.654  2.0305  0.2160  0.9061
  150DG      O9 3436   3.692   1.994   1.054  0.0043  0.4705 -0.7398
  150DG     O10 3437   3.303   2.315   0.852 -0.0322 -0.0934 -0.5639
  150DG     C11 3438   3.559   1.989   1.099  0.0006 -0.6245 -0.1738
  150DG     C12 3439   3.417   2.386   0.896 -0.1988  0.1657 -0.4224
  150DG     H13 3440   3.541   1.928   1.188 -2.4396  0.5334  0.2061
  150DG     H14 3441   3.500   1.945   1.018  0.6571  0.7491 -1.4436
  150DG     H15 3442   3.419   2.495   0.892 -1.5267  0.3071  1.3984
  150DG     H16 3443   3.497   2.353   0.831  0.3821  0.2200  0.2503
  150DG     C17 3444   3.514   2.129   1.132 -0.2109  0.1271  0.4080
  150DG     C18 3445   3.440   2.336   1.039  0.4912 -0.6249  0.0522
  150DG     O19 3446   3.460   2.197   1.021 -0.3417 -0.3498 -0.1461
  150DG     H20 3447   3.598   2.183   1.177  0.6113 -1.2098  0.5112
  150DG     H21 3448   3.442   2.122   1.214  0.4468 -0.0275  0.9884
  150DG     H22 3449   3.522   2.389   1.087 -1.3996  0.9160  1.7212
  150DG     H23 3450   3.347   2.353   1.094  1.3219 -0.2925  1.3960
  151DG      C1 3451   2.498   2.113   4.264  0.1256 -0.6968  0.8686
  151DG      C2 3452   2.928   2.066   5.043 -0.2887  0.1366  0.8941
  151DG      H3 3453   2.410   2.049   4.268  0.2720 -0.9775 -0.0658
  151DG      H4 3454   2.537   2.119   4.163 -0.4507 -0.4947  0.6596
  151DG      H5 3455   2.448   2.207   4.287 -0.8064 -1.2775  1.2668
  151DG      H6 3456   2.881   2.163   5.059 -0.4593  0.5213 -1.5564
  151DG      H7 3457   2.881   1.978   5.088 -1.8853 -0.3662 -1.5472
  151DG      H8 3458   3.034   2.074   5.069 -0.2301  2.2083  0.1986
  151DG      O9 3459   2.597   2.064   4.354  0.4592  0.6654  0.5496
  151DG     O10 3460   2.932   2.018   4.912  0.0038 -0.1701  0.7833
  151DG     C11 3461   2.715   2.143   4.363  0.9990 -0.3350  0.1000
  151DG     C12 3462   2.860   2.101   4.818  0.3889 -0.0863  0.4581
  151DG     H13 3463   2.689   2.244   4.395  0.7666 -1.4035  3.7500
  151DG     H14 3464   2.757   2.149   4.263  0.2131 -2.3058 -0.3944
  151DG     H15 3465   2.904   2.200   4.831  0.9551 -0.0193 -1.7058
  151DG     H16 3466   2.755   2.095   4.845  0.1591 -0.1265 -0.4129
  151DG     C17 3467   2.821   2.078   4.450  0.0820 -0.1316 -0.4354
  151DG     C18 3468   2.884   2.051   4.679  0.1777 -0.5463 -0.4699
  151DG     O19 3469   2.791   2.112   4.587 -0.0551  0.3928  0.0082
  151DG     H20 3470   2.913   2.113   4.402 -0.5174  1.6975 -0.3118
  151DG     H21 3471   2.812   1.970   4.436  0.7995 -0.4626  1.3330
  151DG     H22 3472   2.990   2.066   4.658  0.2262 -1.1102 -0.6282
  151DG     H23 3473   2.880   1.943   4.681 -2.4868 -0.5527 -1.4061
  152DG      C1 3474   3.936   3.827   1.206 -0.0045 -0.1991  0.7078
  152DG      C2 3475   3.784   4.578   1.238 -0.1500 -0.3313 -0.0635
  152DG      H3 3476   3.895   3.825   1.307 -1.7795 -1.2873  0.0042
  152DG      H4 3477   3.987   3.734   1.178  1.0184  0.5436  0.0422
  152DG      H5 3478   3.845   3.848   1.150  1.0677  2.2194 -0.2945
  152DG      H6 3479   3.836   4.662   1.283  0.2398 -0.9461  0.6538
  152DG      H7 3480   3.815   4.571   1.133 -1.7476 -2.8010 -0.4619
  152DG      H8 3481   3.682   4.616   1.239  1.0043  3.1353 -0.3587
  152DG      O9 3482   4.030   3.928   1.189 -0.4982  0.2745 -0.2121
  152DG     O10 3483   3.795   4.456   1.315  0.4091 -0.6167 -0.5502
  152DG     C11 3484   4.112   3.952   1.303 -0.1414 -0.2539  0.0474
  152DG     C12 3485   3.909   4.379   1.281  0.2035 -0.2045  0.4952
  152DG     H13 3486   4.205   3.993   1.264  0.2780  0.5048  1.7635
  152DG     H14 3487   4.124   3.855   1.353 -2.1153 -1.0533 -0.9202
  152DG     H15 3488   3.992   4.442   1.315  1.6607 -2.1455  0.6847
  152DG     H16 3489   3.938   4.371   1.177  0.2281 -0.2273  0.5038
  152DG     C17 3490   4.046   4.056   1.401  0.6522  0.3300 -0.3633
  152DG     C18 3491   3.913   4.247   1.353  0.1333 -0.6668 -0.4318
  152DG     O19 3492   4.045   4.189   1.344  0.3278  0.9926 -0.0162
  152DG     H20 3493   4.099   4.070   1.495 -2.5210  1.0124  1.4234
  152DG     H21 3494   3.945   4.029   1.431  0.1563  3.1370  0.7934
  152DG     H22 3495   3.879   4.260   1.455 -0.3861 -0.3997 -0.6337
  152DG     H23 3496   3.845   4.182   1.297 -0.3328  0.0842 -0.7515
  153DG      C1 3497   1.002   3.442   4.729 -0.1358 -0.0201 -0.2750
  153DG      C2 3498   0.395   3.295   4.930  0.1991 -1.0818 -0.0663
  153DG      H3 3499   0.954   3.531   4.690  2.0509  0.9184 -0.9883
  153DG      H4 3500   1.101   3.422   4.688 -0.1446  0.4284 -0.5215
  153DG      H5 3501   1.025   3.451   4.835  0.8700 -0.4864 -0.4384
  153DG      H6 3502   0.457   3.271   5.017  2.3807  1.9070 -0.6110
  153DG      H7 3503   0.361   3.398   4.937 -1.0357 -1.3039 -2.1837
  153DG      H8 3504   0.308   3.230   4.929 -0.2737 -0.4626  0.3171
  153DG      O9 3505   0.916   3.324   4.714 -0.2086 -0.4847 -0.3581
  153DG     O10 3506   0.476   3.264   4.820  0.5601  0.0127  0.4999
  153DG     C11 3507   0.887   3.298   4.580  0.6103  0.0356 -0.9942
  153DG     C12 3508   0.427   3.287   4.694 -0.2619 -0.1578 -0.0973
  153DG     H13 3509   0.972   3.235   4.550  0.2543 -2.3485  2.4811
  153DG     H14 3510   0.879   3.386   4.516 -2.7250 -0.4446 -1.3965
  153DG     H15 3511   0.408   3.394   4.687 -2.6671 -0.4895  0.3091
  153DG     H16 3512   0.328   3.243   4.679 -1.7157  1.8400  2.6327
  153DG     C17 3513   0.754   3.220   4.558 -0.4193 -0.3062 -0.0706
  153DG     C18 3514   0.523   3.225   4.595  0.4445  0.2814 -0.0811
  153DG     O19 3515   0.648   3.281   4.632  0.4360 -0.1056 -0.1801
  153DG     H20 3516   0.769   3.126   4.612  0.0631  0.4237  1.1053
  153DG     H21 3517   0.736   3.199   4.453 -3.8510  0.3170  0.2577
  153DG     H22 3518   0.512   3.117   4.591  0.8735  0.2435 -0.3273
  153DG     H23 3519   0.498   3.265   4.496  0.4531  1.5719  0.4168
  154DG      C1 3520   0.103   1.286   4.601 -0.4254  0.1573  0.4096
  154DG      C2 3521  -0.672   1.515   4.864  0.0687 -0.0166  0.7273
  154DG      H3 3522   0.198   1.266   4.650  0.8294  1.7185 -1.2099
  154DG      H4 3523   0.137   1.325   4.505  0.2710 -0.9784  0.1694
  154DG      H5 3524   0.055   1.191   4.578 -0.0441 -0.0986  0.6488
  154DG      H6 3525  -0.750   1.575   4.911 -0.8142 -1.7246  1.5468
  154DG      H7 3526  -0.638   1.581   4.784 -0.6306 -0.0128  0.4249
  154DG      H8 3527  -0.726   1.430   4.823  0.6326 -0.1584  0.2686
  154DG      O9 3528   0.009   1.362   4.676 -0.3895 -0.3194  0.1843
  154DG     O10 3529  -0.561   1.463   4.936 -0.7998  0.4404  0.3369
  154DG     C11 3530  -0.065   1.449   4.591  0.0970  0.4077  0.4861
  154DG     C12 3531  -0.452   1.406   4.865  0.3273  0.0986  0.7608
  154DG     H13 3532  -0.130   1.403   4.517 -0.2559  1.2426  0.2729
  154DG     H14 3533   0.003   1.511   4.533  0.8986 -0.2419  0.7169
  154DG     H15 3534  -0.491   1.332   4.796  0.5490  1.0278 -0.3986
  154DG     H16 3535  -0.381   1.354   4.930  0.8622  1.0549  0.9607
  154DG     C17 3536  -0.168   1.537   4.670 -0.3845 -0.2512  0.2657
  154DG     C18 3537  -0.362   1.513   4.801  0.3809 -0.3631 -0.4075
  154DG     O19 3538  -0.253   1.452   4.742 -0.4087  0.1829 -0.4272
  154DG     H20 3539  -0.222   1.600   4.600  1.0666 -0.2025 -0.8715
  154DG     H21 3540  -0.113   1.590   4.748  2.2728 -0.1401 -1.5424
  154DG     H22 3541  -0.419   1.583   4.740  1.7380  0.0020 -1.3090
  154DG     H23 3542  -0.319   1.579   4.877 -1.5750  1.5050 -0.8118
  155DG      C1 3543   0.386   0.930   1.738  0.1667 -0.5353  0.0652
  155DG      C2 3544  -0.058   1.575   1.787  0.3412 -0.1965  0.6562
  155DG      H3 3545   0.468   0.908   1.670 -0.6184  0.8335 -1.3775
  155DG      H4 3546   0.310   0.852   1.725  0.1762 -0.6431  0.6197
  155DG      H5 3547   0.408   0.940   1.844  2.7886 -1.0993 -0.3696
  155DG      H6 3548  -0.114   1.624   1.707 -0.6304 -0.0734  1.4029
  155DG      H7 3549  -0.118   1.575   1.877  0.5330  2.5279  0.8649
  155DG      H8 3550   0.020   1.643   1.820  1.7467 -1.8621  0.9083
  155DG      O9 3551   0.330   1.052   1.692  0.4364  0.5316 -0.5186
  155DG     O10 3552   0.005   1.455   1.746  0.3101  0.3569 -0.3111
  155DG     C11 3553   0.416   1.163   1.686 -0.3183 -0.0344  0.1047
  155DG     C12 3554   0.054   1.366   1.853  0.4171 -0.8276 -0.2270
  155DG     H13 3555   0.500   1.135   1.621  0.5831 -4.3130  2.7248
  155DG     H14 3556   0.450   1.177   1.788 -0.7268 -0.8752  0.3644
  155DG     H15 3557  -0.031   1.315   1.899 -0.1315  0.9694  0.8499
  155DG     H16 3558   0.098   1.431   1.928  0.2353 -1.4104  0.4010
  155DG     C17 3559   0.341   1.285   1.638 -0.0402  0.5226  0.1792
  155DG     C18 3560   0.157   1.271   1.794 -0.8966  0.5759 -0.3251
  155DG     O19 3561   0.269   1.340   1.741 -0.5955 -0.3349 -0.2058
  155DG     H20 3562   0.283   1.250   1.552 -0.4839  1.4774  0.0751
  155DG     H21 3563   0.419   1.355   1.609  0.0711  0.0515 -0.6805
  155DG     H22 3564   0.208   1.214   1.872 -3.0069 -2.1857 -0.8016
  155DG     H23 3565   0.110   1.199   1.727 -0.4701 -0.3984  0.3884
  156DG      C1 3566   1.243   1.755   3.437 -0.0309  0.1335 -1.0339
  156DG      C2 3567   0.975   2.366   3.237 -0.3351  0.0258 -0.5139
  156DG      H3 3568   1.246   1.681   3.517  0.7035  1.3720  0.1263
  156DG      H4 3569   1.338   1.808   3.445  1.2130 -2.2719  2.6526
  156DG      H5 3570   1.233   1.714   3.336  0.2347  2.4805 -2.0879
  156DG      H6 3571   1.075   2.374   3.196  1.3402  1.8530  3.4346
  156DG      H7 3572   0.900   2.347   3.160 -0.3367 -1.6587 -0.1268
  156DG      H8 3573   0.959   2.469   3.270  0.9122  0.3479 -0.8885
  156DG      O9 3574   1.140   1.851   3.469 -0.0665 -0.0870  0.9541
  156DG     O10 3575   0.964   2.266   3.334 -0.8980  0.2063  0.2172
  156DG     C11 3576   1.012   1.796   3.494  0.4775  0.6831 -0.1362
  156DG     C12 3577   0.831   2.229   3.356  0.3247  0.0764 -0.9049
  156DG     H13 3578   1.020   1.722   3.574  2.2971 -0.5423 -1.3902
  156DG     H14 3579   0.984   1.747   3.401  2.3628  1.1388 -0.9854
  156DG     H15 3580   0.784   2.187   3.268 -2.1039 -1.4715  0.9890
  156DG     H16 3581   0.773   2.315   3.389 -0.3296 -0.8809  0.5835
  156DG     C17 3582   0.899   1.904   3.526 -0.0248  0.3826 -0.1841
  156DG     C18 3583   0.813   2.116   3.462 -0.3164 -0.2561 -0.5029
  156DG     O19 3584   0.897   2.011   3.430  0.1408  0.5710  0.3205
  156DG     H20 3585   0.920   1.943   3.626  3.2414 -2.6249  0.5144
  156DG     H21 3586   0.803   1.853   3.529  1.0730 -1.8929 -1.2645
  156DG     H22 3587   0.848   2.156   3.558  0.3628  0.6640 -1.1214
  156DG     H23 3588   0.706   2.108   3.484 -0.0905 -1.5630  0.2138
  157DG      C1 3589   2.483   4.054   0.629 -0.0608  0.3367 -0.3592
  157DG      C2 3590   2.264   3.648   0.492  0.4312  0.0254 -0.1075
  157DG      H3 3591   2.403   4.118   0.592  0.5767  0.8443 -0.9158
  157DG      H4 3592   2.477   4.054   0.738  0.9818 -0.9502 -0.2746
  157DG      H5 3593   2.451   3.954   0.603  0.9820 -1.6345  4.7909
  157DG      H6 3594   2.247   3.590   0.582  0.4032 -1.1714 -0.8697
  157DG      H7 3595   2.252   3.754   0.516  1.8211  0.1550  0.0659
  157DG      H8 3596   2.188   3.614   0.422 -0.8097 -2.0021  2.0819
  157DG      O9 3597   2.609   4.085   0.575 -0.0102  0.4013  0.4827
  157DG     O10 3598   2.388   3.644   0.433 -0.2447  0.6187  0.9090
  157DG     C11 3599   2.623   4.101   0.432 -0.0535  0.2677 -0.2381
  157DG     C12 3600   2.388   3.714   0.302 -0.1778 -0.5774 -0.3767
  157DG     H13 3601   2.699   4.179   0.435  0.3673 -0.1559  0.2345
  157DG     H14 3602   2.529   4.147   0.399  0.3403 -0.0942 -1.9238
  157DG     H15 3603   2.314   3.794   0.305  0.8963  0.4282  3.3629
  157DG     H16 3604   2.363   3.639   0.227 -0.7423 -0.7949  0.0215
  157DG     C17 3605   2.657   3.965   0.365 -0.6834 -0.0093 -0.5785
  157DG     C18 3606   2.520   3.790   0.279 -0.7288  0.3037 -0.3603
  157DG     O19 3607   2.554   3.877   0.393 -0.3832  0.1014  0.3777
  157DG     H20 3608   2.753   3.929   0.401 -1.5671 -1.5392  0.3650
  157DG     H21 3609   2.669   3.995   0.261  0.4045 -0.3057 -0.5535
  157DG     H22 3610   2.606   3.724   0.273  0.7483  2.1670 -0.7688
  157DG     H23 3611   2.510   3.858   0.193 -3.0312  0.9296  0.3239
  158DG      C1 3612   1.591   2.328   1.495  0.0962 -0.8402 -0.0281
  158DG      C2 3613   1.611   1.925   0.969 -0.2729 -1.0711 -0.4678
  158DG      H3 3614   1.694   2.316   1.460  0.1641  0.4240 -0.3117
  158DG      H4 3615   1.586   2.261   1.580  1.2149 -1.9367 -0.7861
  158DG      H5 3616   1.568   2.429   1.529 -3.2034 -0.9793 -1.4450
  158DG      H6 3617   1.712   1.965   0.962 -0.0316 -1.5072  0.4002
  158DG      H7 3618   1.625   1.837   1.032  3.5655  0.2802  0.8543
  158DG      H8 3619   1.579   1.897   0.869 -1.0213  0.7250 -0.7761
  158DG      O9 3620   1.506   2.286   1.388 -0.1507 -0.3617 -0.2438
  158DG     O10 3621   1.523   2.025   1.028  0.0669 -0.0024 -0.3154
  158DG     C11 3622   1.368   2.279   1.420 -0.6560  0.3592  0.7903
  158DG     C12 3623   1.391   1.972   1.045 -0.0540 -0.6724  0.1185
  158DG     H13 3624   1.325   2.370   1.463 -1.8455 -1.2104  3.1519
  158DG     H14 3625   1.352   2.208   1.501  0.9779 -0.0847  0.7506
  158DG     H15 3626   1.386   1.886   1.112 -2.2611 -1.0738 -0.4852
  158DG     H16 3627   1.349   1.919   0.960 -1.3177 -1.9482  1.4691
  158DG     C17 3628   1.288   2.233   1.297 -0.2173  0.3760 -0.0525
  158DG     C18 3629   1.291   2.080   1.103 -0.7668  0.3755 -0.3801
  158DG     O19 3630   1.357   2.131   1.221 -0.4124 -0.3699 -0.0260
  158DG     H20 3631   1.263   2.320   1.237  2.6804  1.2422 -0.1244
  158DG     H21 3632   1.189   2.196   1.327 -0.6487  0.4004 -1.3767
  158DG     H22 3633   1.277   2.159   1.029 -1.1901  2.2735  1.6133
  158DG     H23 3634   1.193   2.036   1.123  0.5532 -2.0035  1.3049
  159DG      C1 3635   0.414   4.024   0.995 -0.6924 -0.3284 -0.1815
  159DG      C2 3636   1.002   3.960   0.663 -0.1576 -0.7739 -0.6795
  159DG      H3 3637   0.451   3.926   0.967 -0.2819 -0.3031  0.2543
  159DG      H4 3638   0.308   4.024   1.019 -0.2784  1.9676  2.1574
  159DG      H5 3639   0.472   4.058   1.081  0.4108  0.6810 -1.2677
  159DG      H6 3640   1.087   4.028   0.657 -1.7837  1.4796  0.2278
  159DG      H7 3641   0.998   3.937   0.770  2.8641  1.9503  0.1820
  159DG      H8 3642   1.029   3.875   0.601 -2.1539 -2.5252  0.6815
  159DG      O9 3643   0.429   4.119   0.893  0.1613 -0.0087 -0.1519
  159DG     O10 3644   0.872   4.008   0.624 -0.1808 -0.0320 -0.5294
  159DG     C11 3645   0.369   4.094   0.773 -0.0956  0.3783 -0.3790
  159DG     C12 3646   0.789   3.896   0.620 -0.0902  0.1559  0.2568
  159DG     H13 3647   0.376   4.189   0.722 -0.3079 -0.3181 -1.7414
  159DG     H14 3648   0.264   4.062   0.774  0.8216 -3.1074 -0.7070
  159DG     H15 3649   0.789   3.839   0.713 -1.7720 -0.3736 -0.0221
  159DG     H16 3650   0.822   3.824   0.546  2.6124 -1.8167  3.1373
  159DG     C17 3651   0.435   3.998   0.676 -0.1846  0.9658  0.6305
  159DG     C18 3652   0.637   3.919   0.586 -0.1006  0.5288  0.0759
  159DG     O19 3653   0.576   4.017   0.672 -0.6491  0.1915  0.4946
  159DG     H20 3654   0.401   4.019   0.575  2.4497 -1.0899 -0.8216
  159DG     H21 3655   0.408   3.898   0.712 -0.0831  1.0384  0.9064
  159DG     H22 3656   0.620   3.946   0.482  0.3604 -3.4424 -1.2068
  159DG     H23 3657   0.590   3.821   0.593  0.6908  0.2026  1.0054
  160DG      C1 3658   0.254   0.875   1.284 -0.1154 -0.1393 -0.2512
  160DG      C2 3659  -0.175   1.301   0.997 -0.5764  0.1305  0.2857
  160DG      H3 3660   0.186   0.914   1.360 -0.1155 -2.7847  1.2190
  160DG      H4 3661   0.330   0.952   1.275 -1.1863  1.2706  1.8777
  160DG      H5 3662   0.302   0.780   1.304  0.5033  0.4583  1.1787
  160DG      H6 3663  -0.253   1.312   1.073 -1.9653  2.9499 -1.3972
  160DG      H7 3664  -0.099   1.366   1.039  0.6354  0.0345 -1.6577
  160DG      H8 3665  -0.209   1.339   0.900  1.4264  1.4048  0.0370
  160DG      O9 3666   0.181   0.870   1.157  0.3496  0.1100 -0.3181
  160DG     O10 3667  -0.119   1.167   0.985  0.0754 -0.4683  0.5283
  160DG     C11 3668   0.079   0.779   1.155  0.0265 -0.4243  0.0546
  160DG     C12 3669  -0.219   1.067   0.948 -0.1145  0.4712 -0.0561
  160DG     H13 3670   0.014   0.784   1.242  1.1785  0.2079  0.9060
  160DG     H14 3671   0.122   0.680   1.168 -0.2991 -0.3102  2.4770
  160DG     H15 3672  -0.261   1.102   0.854  2.0504 -1.7765 -2.0175
  160DG     H16 3673  -0.302   1.053   1.017 -0.6947 -0.5980 -0.9405
  160DG     C17 3674   0.001   0.786   1.023 -0.1174 -0.2122 -0.5827
  160DG     C18 3675  -0.142   0.938   0.916  0.2058 -0.3633  0.0207
  160DG     O19 3676  -0.065   0.914   1.033  0.0054  0.5610  0.2649
  160DG     H20 3677  -0.076   0.709   1.027 -2.0281  1.6525  1.5769
  160DG     H21 3678   0.072   0.778   0.942  0.5007  1.2216 -0.2050
  160DG     H22 3679  -0.213   0.856   0.899  0.7191 -0.9677  0.7004
  160DG     H23 3680  -0.059   0.949   0.847  0.6968  0.5475  0.7284
  161DG      C1 3681   2.656   1.237   4.755 -0.3772 -0.2203  0.1989
  161DG      C2 3682   3.135   1.714   4.715 -0.2298 -0.3082 -0.3219
  161DG      H3 3683   2.680   1.251   4.861 -1.1276 -1.5588  0.5658
  161DG      H4 3684   2.711   1.146   4.733  0.8779  0.6171 -0.2300
  161DG      H5 3685   2.550   1.217   4.741 -0.2274 -0.7945 -0.1399
  161DG      H6 3686   3.207   1.755   4.644  0.4220  0.4822  0.7800
  161DG      H7 3687   3.086   1.799   4.763  2.8341 -0.0464  2.7051
  161DG      H8 3688   3.190   1.660   4.792  2.8788  0.8524 -1.5555
  161DG      O9 3689   2.695   1.342   4.675 -0.2213 -0.2204 -0.1039
  161DG     O10 3690   3.050   1.639   4.627 -0.1733 -0.4318  0.4707
  161DG     C11 3691   2.697   1.319   4.535 -0.2752 -0.2555 -0.0068
  161DG     C12 3692   3.022   1.682   4.497 -0.0590  0.0140  0.8408
  161DG     H13 3693   2.595   1.289   4.509  0.5392 -0.8954 -2.7610
  161DG     H14 3694   2.767   1.241   4.507  1.6087  1.1573  0.5188
  161DG     H15 3695   3.110   1.671   4.432 -0.7877 -1.5572  0.0556
  161DG     H16 3696   3.017   1.790   4.506  0.0937  0.2568 -1.3659
  161DG     C17 3697   2.740   1.444   4.454  0.2079 -0.5164  0.8803
  161DG     C18 3698   2.884   1.627   4.442  0.3270  0.3252 -0.0657
  161DG     O19 3699   2.872   1.494   4.487 -0.3971  0.0320 -0.2296
  161DG     H20 3700   2.666   1.522   4.471  0.9464  0.8516 -1.7209
  161DG     H21 3701   2.741   1.434   4.346 -0.1957  1.4865  0.6557
  161DG     H22 3702   2.802   1.689   4.479  0.0732 -0.1341  0.1575
  161DG     H23 3703   2.892   1.636   4.333 -1.1956 -0.9396 -0.3278
  162DG      C1 3704   2.289   2.968   4.301  0.0473  0.0182 -0.0529
  162DG      C2 3705   2.724   3.341   4.835 -0.0390  0.1550 -0.1533
  162DG      H3 3706   2.324   2.871   4.337 -1.3665 -0.0882  1.1462
  162DG      H4 3707   2.292   2.965   4.192  2.3224 -2.4623 -0.0303
  162DG      H5 3708   2.182   2.957   4.322 -0.8190 -1.2121 -4.1120
  162DG      H6 3709   2.782   3.351   4.743  1.6234  0.2782  0.8775
  162DG      H7 3710   2.722   3.431   4.896  1.0458 -1.1651  1.9510
  162DG      H8 3711   2.782   3.272   4.896 -0.8620  0.8619  1.4686
  162DG      O9 3712   2.366   3.073   4.340 -0.5384 -0.0583 -1.0763
  162DG     O10 3713   2.596   3.293   4.808  0.1032 -0.4083  0.2126
  162DG     C11 3714   2.420   3.046   4.466 -0.3445 -0.3629  0.5387
  162DG     C12 3715   2.503   3.378   4.743  0.1148  0.2364 -0.6708
  162DG     H13 3716   2.478   2.954   4.458 -0.9508 -0.6006 -1.7514
  162DG     H14 3717   2.344   3.030   4.542  0.1553 -0.2714  1.0645
  162DG     H15 3718   2.510   3.479   4.783  0.1156 -0.7097  1.9276
  162DG     H16 3719   2.408   3.343   4.784  0.5806 -0.1587  0.1149
  162DG     C17 3720   2.511   3.160   4.527 -0.4653 -0.6592 -0.3076
  162DG     C18 3721   2.506   3.386   4.591  0.4478  0.5453  0.4700
  162DG     O19 3722   2.431   3.281   4.526 -0.4007  0.0535  0.1908
  162DG     H20 3723   2.611   3.162   4.483  0.6744 -1.4977  2.0640
  162DG     H21 3724   2.533   3.138   4.631 -0.7552 -0.0759 -0.1130
  162DG     H22 3725   2.455   3.480   4.570 -0.6265 -0.6108 -2.5190
  162DG     H23 3726   2.607   3.385   4.549 -0.2495 -0.2250 -1.2724
  163DG      C1 3727   1.234   2.021   4.640 -0.0628  0.1267 -0.2671
  163DG      C2 3728   0.639   1.722   4.522  0.2187  0.5456  0.0991
  163DG      H3 3729   1.205   2.025   4.745  0.3621 -2.1014 -0.0206
  163DG      H4 3730   1.225   2.126   4.614 -1.1203 -0.1769 -1.2396
  163DG      H5 3731   1.339   1.996   4.630  0.3950  1.8493 -0.0546
  163DG      H6 3732   0.595   1.806   4.577 -2.2569 -0.1395 -0.7078
  163DG      H7 3733   0.555   1.690   4.460  0.6398 -0.6019  0.1016
  163DG      H8 3734   0.647   1.639   4.592  0.8883  0.3578 -0.1898
  163DG      O9 3735   1.138   1.932   4.577 -0.2871 -0.4448  0.4094
  163DG     O10 3736   0.754   1.735   4.443 -0.0304  0.2230 -0.2539
  163DG     C11 3737   1.170   1.927   4.438 -0.1071 -0.6232  0.1704
  163DG     C12 3738   0.736   1.818   4.332 -0.8876 -0.2421  0.9011
  163DG     H13 3739   1.270   1.887   4.422  1.3702  2.1076  1.8863
  163DG     H14 3740   1.165   2.026   4.394  0.6066 -0.7040 -0.1070
  163DG     H15 3741   0.699   1.919   4.348 -2.8863 -0.5124 -1.4348
  163DG     H16 3742   0.663   1.771   4.267 -0.0498  2.6124 -2.3986
  163DG     C17 3743   1.071   1.838   4.360 -0.6258  0.0843 -0.0594
  163DG     C18 3744   0.868   1.833   4.258  0.3028  0.3242 -0.0286
  163DG     O19 3745   0.955   1.911   4.335 -0.5510  0.1607  0.5353
  163DG     H20 3746   1.062   1.747   4.420 -1.5392  0.6121  0.6262
  163DG     H21 3747   1.134   1.811   4.276 -0.2237 -0.3389  0.3703
  163DG     H22 3748   0.907   1.737   4.225 -0.9908 -1.2816  2.7050
  163DG     H23 3749   0.843   1.886   4.166 -1.0325 -1.2440 -0.6236
  164DG      C1 3750   2.790   1.635   4.912 -0.6749  0.5094  0.2824
  164DG      C2 3751   3.160   1.216   4.514 -0.8009  0.9153  0.1332
  164DG      H3 3752   2.848   1.711   4.964  4.0118 -2.8523  0.6109
  164DG      H4 3753   2.700   1.617   4.971 -0.3389  1.4579  1.1070
  164DG      H5 3754   2.762   1.680   4.817  1.2267  0.8793 -0.1374
  164DG      H6 3755   3.117   1.290   4.446  0.4103 -0.4992 -2.3208
  164DG      H7 3756   3.263   1.186   4.494 -0.5129  1.2090  1.1476
  164DG      H8 3757   3.104   1.126   4.487 -1.9001  1.0609  1.7569
  164DG      O9 3758   2.877   1.525   4.900 -0.3407  0.0845  0.1553
  164DG     O10 3759   3.135   1.254   4.650  0.0889 -0.6246  0.5816
  164DG     C11 3760   2.894   1.446   5.019  0.1400 -0.8588 -0.9286
  164DG     C12 3761   3.140   1.145   4.745 -0.5802  0.2677  0.2755
  164DG     H13 3762   2.819   1.369   5.037  1.0101 -1.8680 -1.5177
  164DG     H14 3763   2.895   1.511   5.107  1.0674 -2.9198  0.6470
  164DG     H15 3764   3.234   1.090   4.741  0.6443  1.9926  2.6905
  164DG     H16 3765   3.056   1.081   4.720 -0.4058 -1.2968  3.1498
  164DG     C17 3766   3.031   1.387   5.010 -0.5505  0.3877  0.0625
  164DG     C18 3767   3.126   1.202   4.886  0.0399 -0.2928  0.5000
  164DG     O19 3768   3.032   1.305   4.890  0.1319 -0.1866  0.1897
  164DG     H20 3769   3.061   1.336   5.102  0.0109 -0.0218 -0.3442
  164DG     H21 3770   3.101   1.468   4.992  0.9606 -1.0708 -0.9398
  164DG     H22 3771   3.091   1.122   4.951  2.1414 -1.8811 -0.1890
  164DG     H23 3772   3.228   1.229   4.916  1.0240 -1.9213 -1.1392
  165DG      C1 3773   4.925   2.214   5.272  0.3008 -0.1871  0.4107
  165DG      C2 3774   4.593   2.491   4.695 -0.1938 -0.6431 -0.2964
  165DG      H3 3775   4.822   2.248   5.285 -0.4711 -1.2888 -2.1568
  165DG      H4 3776   4.995   2.266   5.337  1.8298 -2.2974  0.5707
  165DG      H5 3777   4.928   2.107   5.292 -0.6768 -0.7280 -2.0301
  165DG      H6 3778   4.502   2.430   4.702  0.6488 -1.8783  0.4148
  165DG      H7 3779   4.577   2.586   4.746  1.5661 -1.2249  1.4826
  165DG      H8 3780   4.604   2.526   4.593  0.5522  0.3648  0.1171
  165DG      O9 3781   4.940   2.262   5.144  0.4037 -0.3041  0.6591
  165DG     O10 3782   4.704   2.435   4.761 -0.3576 -0.1021 -0.2508
  165DG     C11 3783   5.059   2.227   5.071 -0.7668  1.0803 -0.1059
  165DG     C12 3784   4.823   2.514   4.751  0.5733  0.2000 -0.8984
  165DG     H13 3785   5.052   2.122   5.043 -0.0508  0.9878  0.0442
  165DG     H14 3786   5.141   2.227   5.142 -0.7605 -1.8329  0.0148
  165DG     H15 3787   4.809   2.602   4.815  1.1485  0.4543 -1.1093
  165DG     H16 3788   4.841   2.550   4.650  0.0580  1.4374 -0.5703
  165DG     C17 3789   5.070   2.317   4.947 -0.1146  0.7034  0.2801
  165DG     C18 3790   4.949   2.430   4.778 -0.1688  0.2944 -0.4543
  165DG     O19 3791   4.946   2.378   4.911 -0.3752  0.0925 -0.3062
  165DG     H20 3792   5.116   2.257   4.868 -0.4076 -0.9413  1.2966
  165DG     H21 3793   5.147   2.392   4.968 -1.3407  2.4775 -1.3045
  165DG     H22 3794   4.947   2.346   4.708  0.1300 -1.7960  1.9390
  165DG     H23 3795   5.036   2.494   4.764  1.5485 -1.9099 -0.4033
  166DG      C1 3796   2.334   3.201   2.291 -0.0167  0.0624  1.2778
  166DG      C2 3797   2.126   3.021   2.920 -0.5822 -0.5233  0.3090
  166DG      H3 3798   2.277   3.141   2.219  0.2194  0.9001  0.3655
  166DG      H4 3799   2.426   3.228   2.240 -0.1077  0.1337  1.1502
  166DG      H5 3800   2.277   3.292   2.310  0.3269  0.6478 -0.2717
  166DG      H6 3801   2.210   2.976   2.974  0.8830  1.1495 -0.4744
  166DG      H7 3802   2.045   3.029   2.993  0.4377 -0.8871  1.5242
  166DG      H8 3803   2.101   2.948   2.843  2.0407 -1.6113  0.3694
  166DG      O9 3804   2.376   3.122   2.398  0.4864 -0.0278  0.2059
  166DG     O10 3805   2.163   3.147   2.868  0.8882 -0.3028 -0.0798
  166DG     C11 3806   2.447   3.195   2.487 -1.0351 -0.8232  0.3197
  166DG     C12 3807   2.082   3.205   2.766  0.1238  0.6292  0.5670
  166DG     H13 3808   2.535   3.241   2.442 -2.4765  3.0257  1.0384
  166DG     H14 3809   2.485   3.127   2.563 -1.1535 -2.5374 -1.0971
  166DG     H15 3810   1.991   3.253   2.804 -0.6933  0.9294 -1.5996
  166DG     H16 3811   2.061   3.127   2.693 -0.6537 -0.0900  1.5355
  166DG     C17 3812   2.360   3.297   2.561 -0.3081 -0.5030 -0.3906
  166DG     C18 3813   2.158   3.304   2.679  0.4779 -0.6316  0.5346
  166DG     O19 3814   2.255   3.228   2.617 -0.3061 -0.7922  0.4550
  166DG     H20 3815   2.342   3.381   2.494  3.2000 -1.7311 -3.1692
  166DG     H21 3816   2.415   3.339   2.646  2.0993 -4.2214  0.0960
  166DG     H22 3817   2.095   3.351   2.603 -0.3520  0.1847  1.6898
  166DG     H23 3818   2.198   3.386   2.739 -0.1223  0.2036 -0.1726
  167DG      C1 3819   2.760   1.860   1.293 -0.3746  0.0206 -0.1654
  167DG      C2 3820   3.055   1.686   0.774  0.3235 -0.0663 -0.9448
  167DG      H3 3821   2.736   1.852   1.399 -0.1891 -1.6276 -0.2166
  167DG      H4 3822   2.685   1.814   1.229 -2.8528  1.8351  1.2484
  167DG      H5 3823   2.759   1.966   1.270  0.5483  0.5165  1.8186
  167DG      H6 3824   3.118   1.598   0.768 -0.5575 -0.7627 -0.2543
  167DG      H7 3825   2.955   1.665   0.735 -0.5100  1.8649 -0.0124
  167DG      H8 3826   3.093   1.761   0.705  0.9469 -1.5070 -2.2114
  167DG      O9 3827   2.887   1.797   1.276 -0.4400  0.3120  0.4116
  167DG     O10 3828   3.050   1.728   0.916  0.1094  0.1060  0.3512
  167DG     C11 3829   2.988   1.834   1.357  0.1034  0.2962 -0.1649
  167DG     C12 3830   3.170   1.804   0.946 -0.4623  0.3127  0.0900
  167DG     H13 3831   2.962   1.831   1.463 -0.0771 -0.0167 -0.2157
  167DG     H14 3832   2.999   1.939   1.330  1.0495  0.4858  0.8640
  167DG     H15 3833   3.181   1.886   0.874 -0.9832  0.8721  0.6370
  167DG     H16 3834   3.267   1.756   0.932 -0.6927  0.1857 -1.2941
  167DG     C17 3835   3.124   1.763   1.323  0.4206  0.7672  0.1703
  167DG     C18 3836   3.154   1.852   1.099  0.2456 -0.7276  0.6356
  167DG     O19 3837   3.136   1.740   1.179 -0.3390 -0.0610 -0.0337
  167DG     H20 3838   3.102   1.664   1.362  1.1722  0.7469  0.5670
  167DG     H21 3839   3.212   1.803   1.373  0.5981  1.0484 -0.3610
  167DG     H22 3840   3.236   1.919   1.125  1.3025 -1.3740 -0.8912
  167DG     H23 3841   3.066   1.915   1.103  0.8382  0.3783 -1.6075
  168DG      C1 3842   0.688   3.291   3.996 -0.4536  0.2300  0.4030
  168DG      C2 3843   0.676   3.978   3.499 -0.1969 -0.0999  0.3326
  168DG      H3 3844   0.654   3.256   3.899 -1.4929 -1.0901  1.2156
  168DG      H4 3845   0.598   3.334   4.040  0.0311  1.6940  0.0412
  168DG      H5 3846   0.717   3.201   4.049 -0.7463 -0.8378 -1.1948
  168DG      H6 3847   0.734   3.981   3.406  0.1727 -0.1845  0.5568
  168DG      H7 3848   0.577   4.011   3.468  0.2520  0.3885 -0.6354
  168DG      H8 3849   0.719   4.047   3.571  0.9035  0.5486 -0.8956
  168DG      O9 3850   0.797   3.387   3.989  0.0851  1.1425  0.6923
  168DG     O10 3851   0.682   3.838   3.536  0.1462 -0.0222  0.1506
  168DG     C11 3852   0.767   3.513   3.935 -0.2206  0.2185 -0.9707
  168DG     C12 3853   0.801   3.776   3.519 -0.4322 -0.3997  0.4784
  168DG     H13 3854   0.843   3.578   3.976 -0.5815 -0.7164  1.3426
  168DG     H14 3855   0.664   3.530   3.968  0.4266  0.6604  0.8829
  168DG     H15 3856   0.877   3.838   3.566 -1.4439  0.3677  1.1282
  168DG     H16 3857   0.823   3.761   3.413  1.8349 -0.5960  0.9290
  168DG     C17 3858   0.777   3.501   3.782  0.2804 -0.2205  0.2066
  168DG     C18 3859   0.804   3.632   3.589  0.2389 -0.3080  0.3541
  168DG     O19 3860   0.767   3.634   3.728 -0.0566  0.1548  0.5734
  168DG     H20 3861   0.696   3.438   3.745 -0.3968 -0.4149  1.9642
  168DG     H21 3862   0.871   3.454   3.755 -0.3315 -0.3418 -1.9355
  168DG     H22 3863   0.725   3.583   3.533 -0.5116  0.2628  0.9059
  168DG     H23 3864   0.899   3.583   3.568  0.1110 -0.7716  0.8085
  169DG      C1 3865   4.138   3.385   2.514  0.2968 -0.8811  0.4973
  169DG      C2 3866   3.995   3.918   2.151 -0.3615  0.2003  0.0027
  169DG      H3 3867   4.038   3.422   2.535 -0.0486 -0.8155 -1.0759
  169DG      H4 3868   4.208   3.453   2.563 -0.1678 -0.5064  0.6449
  169DG      H5 3869   4.166   3.285   2.545  1.7258 -1.0667 -1.2001
  169DG      H6 3870   3.926   3.973   2.087 -1.8587 -0.6650  0.8225
  169DG      H7 3871   3.958   3.940   2.251  2.2968 -0.2388  1.1603
  169DG      H8 3872   4.095   3.960   2.144 -0.2187 -0.3575 -2.1012
  169DG      O9 3873   4.179   3.414   2.375  0.2820  0.4773  0.2024
  169DG     O10 3874   4.022   3.778   2.133  0.0652 -0.5773  0.4854
  169DG     C11 3875   4.124   3.328   2.283 -0.8904 -0.2914  0.5296
  169DG     C12 3876   4.130   3.750   2.051 -0.0003  0.5853 -0.8543
  169DG     H13 3877   4.024   3.303   2.318 -0.7888 -0.4244  0.7296
  169DG     H14 3878   4.170   3.229   2.276 -0.8977 -0.2744  0.2505
  169DG     H15 3879   4.225   3.797   2.080 -0.2469  0.7536 -0.3055
  169DG     H16 3880   4.118   3.785   1.948 -3.0294  0.1588 -0.7256
  169DG     C17 3881   4.128   3.388   2.141 -0.3176  0.3276  0.0385
  169DG     C18 3882   4.139   3.603   2.021  0.4849  0.3658 -1.0021
  169DG     O19 3883   4.102   3.530   2.145 -0.0075  0.6660 -0.4884
  169DG     H20 3884   4.071   3.338   2.063  0.4180 -2.5059  1.1690
  169DG     H21 3885   4.235   3.383   2.118 -0.5364  1.0579 -1.2349
  169DG     H22 3886   4.065   3.568   1.949  0.4955 -0.9815 -0.3880
  169DG     H23 3887   4.239   3.584   1.980  0.8792 -0.4404  0.2769
  170DG      C1 3888   0.682   2.097   0.511  0.0383  0.7113 -0.2173
  170DG      C2 3889   0.031   2.203   0.427  0.2247 -0.0478  0.2718
  170DG      H3 3890   0.698   2.141   0.609 -0.2092 -0.1689  0.2247
  170DG      H4 3891   0.684   2.184   0.445  1.6679  1.0639  0.2353
  170DG      H5 3892   0.764   2.035   0.474 -1.1177 -1.8549  1.3107
  170DG      H6 3893   0.051   2.262   0.338 -0.3738  0.2276  0.3199
  170DG      H7 3894  -0.072   2.169   0.423  1.2729 -3.5452 -1.7685
  170DG      H8 3895   0.028   2.261   0.519  0.2479 -0.7712  0.7448
  170DG      O9 3896   0.560   2.029   0.504  0.0436  0.0418 -0.9117
  170DG     O10 3897   0.116   2.089   0.432  0.7884  0.0523  0.0500
  170DG     C11 3898   0.546   1.925   0.602 -0.0113 -0.5740  0.5854
  170DG     C12 3899   0.082   1.997   0.537 -0.2467  0.5210 -0.5667
  170DG     H13 3900   0.548   1.963   0.705 -0.4198  2.0132 -0.2940
  170DG     H14 3901   0.630   1.857   0.585 -1.3242 -1.9479 -0.6140
  170DG     H15 3902  -0.015   1.950   0.519 -0.9897  2.3279 -1.5361
  170DG     H16 3903   0.082   2.041   0.637  1.3892  2.1845 -1.2373
  170DG     C17 3904   0.422   1.848   0.568  0.4792 -0.3703 -0.1284
  170DG     C18 3905   0.183   1.881   0.531 -0.3487  0.0095  1.0060
  170DG     O19 3906   0.318   1.937   0.562 -0.4063 -0.1789 -0.1540
  170DG     H20 3907   0.395   1.781   0.650 -0.6212 -1.1469 -1.0704
  170DG     H21 3908   0.426   1.792   0.474 -1.0712  1.0673 -1.1121
  170DG     H22 3909   0.165   1.790   0.589 -1.3515 -0.7709 -0.4459
  170DG     H23 3910   0.197   1.843   0.429 -0.9492  3.3199 -0.4426
  171DG      C1 3911   4.371   1.390   1.447 -0.2145 -0.4345  0.3819
  171DG      C2 3912   4.890   1.473   2.055 -0.0189 -0.4185 -0.3464
  171DG      H3 3913   4.438   1.303   1.444 -1.8623 -1.7162 -0.6953
  171DG      H4 3914   4.330   1.391   1.347  2.7514  1.1515 -0.9459
  171DG      H5 3915   4.302   1.357   1.525  2.0181 -2.1989  1.7484
  171DG      H6 3916   4.875   1.542   2.137 -0.4548 -0.9871  0.0617
  171DG      H7 3917   4.870   1.375   2.099  1.4070  0.6339  2.9532
  171DG      H8 3918   4.996   1.463   2.033  0.7473  2.7353  1.4586
  171DG      O9 3919   4.446   1.508   1.478  0.6678  0.1486 -0.3125
  171DG     O10 3920   4.812   1.522   1.946 -0.7309  0.0389  0.1553
  171DG     C11 3921   4.511   1.489   1.602 -0.4490 -0.6983 -0.4419
  171DG     C12 3922   4.862   1.647   1.893  0.0037  0.4271 -0.5721
  171DG     H13 3923   4.590   1.414   1.604 -0.7309 -1.0231  2.9378
  171DG     H14 3924   4.439   1.456   1.676 -0.7960  0.0595 -0.4347
  171DG     H15 3925   4.969   1.653   1.874  0.7084  1.4282  3.0192
  171DG     H16 3926   4.847   1.724   1.969  1.4112  0.3270 -0.1740
  171DG     C17 3927   4.571   1.626   1.641  0.1422 -0.4615 -0.6197
  171DG     C18 3928   4.769   1.677   1.772  0.1277 -0.2730 -0.2075
  171DG     O19 3929   4.640   1.609   1.768 -0.2601  0.2389 -0.2107
  171DG     H20 3930   4.489   1.697   1.651  0.6002  0.1580 -1.0814
  171DG     H21 3931   4.627   1.667   1.557 -1.5405  1.4679 -0.8822
  171DG     H22 3932   4.755   1.785   1.762 -0.0484 -0.0706  1.6963
  171DG     H23 3933   4.830   1.639   1.690  2.2301 -1.4308  1.7699
  172DG      C1 3934   2.550   3.647   2.734  1.0340 -0.1386  0.4264
  172DG      C2 3935   2.790   3.976   2.971  0.2586 -0.8210 -0.2617
  172DG      H3 3936   2.480   3.564   2.745  3.9273 -2.4490  3.8294
  172DG      H4 3937   2.633   3.619   2.668  2.0128  0.7059  1.2611
  172DG      H5 3938   2.504   3.738   2.696  0.9823  0.2768  1.4748
  172DG      H6 3939   2.803   3.870   2.948  2.8025 -1.1150  2.0286
  172DG      H7 3940   2.765   4.033   2.882  1.4166 -1.0448 -0.7476
  172DG      H8 3941   2.885   3.998   3.019  1.0022 -1.1218 -1.5437
  172DG      O9 3942   2.607   3.680   2.856  0.3863 -0.6969 -0.0755
  172DG     O10 3943   2.679   3.985   3.062 -0.1628 -0.0361 -0.0169
  172DG     C11 3944   2.647   3.574   2.938  0.1081  0.4735  0.3390
  172DG     C12 3945   2.722   3.949   3.193  0.6668 -0.1622 -0.0438
  172DG     H13 3946   2.683   3.491   2.879 -1.4906 -0.3768  0.4991
  172DG     H14 3947   2.554   3.532   2.977 -1.0678  1.5107 -1.2199
  172DG     H15 3948   2.640   3.962   3.263 -1.5581 -0.4662 -2.4299
  172DG     H16 3949   2.807   4.007   3.228  0.9007 -0.8333  0.5301
  172DG     C17 3950   2.737   3.617   3.055  0.3484 -0.3078 -0.1728
  172DG     C18 3951   2.777   3.804   3.212  0.1796  0.3556  0.2686
  172DG     O19 3952   2.679   3.724   3.135 -0.3367 -0.2951 -0.3559
  172DG     H20 3953   2.835   3.654   3.025  0.6407  1.0492  2.1970
  172DG     H21 3954   2.762   3.534   3.121 -1.8269 -0.3798  0.6425
  172DG     H22 3955   2.870   3.784   3.160  0.6414 -0.4100  1.3421
  172DG     H23 3956   2.776   3.767   3.315 -0.3082  0.0559  0.1611
  173DG      C1 3957   5.111   4.367   4.182 -0.6375  1.0155  0.2048
  173DG      C2 3958   4.553   4.733   4.512 -0.6827 -0.6650 -0.3062
  173DG      H3 3959   5.137   4.283   4.247 -2.0564  0.0495 -0.4243
  173DG      H4 3960   5.196   4.435   4.188 -0.9963  1.6321 -1.3015
  173DG      H5 3961   5.109   4.344   4.075 -0.0497 -0.3521  0.4622
  173DG      H6 3962   4.496   4.824   4.531  1.2483 -0.1733  4.6895
  173DG      H7 3963   4.527   4.652   4.580  2.4934 -0.2440  1.6429
  173DG      H8 3964   4.649   4.766   4.552 -0.1517 -1.5729 -0.8044
  173DG      O9 3965   4.993   4.425   4.234 -0.0020 -0.3664 -0.1745
  173DG     O10 3966   4.576   4.676   4.385  0.0683  0.0311  0.2051
  173DG     C11 3967   4.934   4.537   4.171  0.2248 -0.0343 -0.6552
  173DG     C12 3968   4.582   4.772   4.273  0.1378  0.0099  0.0504
  173DG     H13 3969   4.943   4.514   4.065  1.2546 -2.4331 -0.1011
  173DG     H14 3970   4.980   4.636   4.179  1.3265 -0.6699  1.9247
  173DG     H15 3971   4.672   4.833   4.274  0.4804 -0.3602 -2.1441
  173DG     H16 3972   4.491   4.832   4.272 -1.1565 -1.8480  1.0183
  173DG     C17 3973   4.786   4.541   4.190  1.2423  0.0635  0.4508
  173DG     C18 3974   4.603   4.692   4.141  0.7114 -0.2994  0.0004
  173DG     O19 3975   4.739   4.654   4.120 -0.3828 -0.1571  0.7028
  173DG     H20 3976   4.771   4.552   4.298  0.9395 -1.5122  0.6016
  173DG     H21 3977   4.729   4.451   4.165  0.4465  0.2288  1.5476
  173DG     H22 3978   4.525   4.616   4.148 -3.4260  3.4626 -0.7519
  173DG     H23 3979   4.575   4.753   4.055 -1.4360 -0.9369  0.2050
  174DG      C1 3980   3.634   0.193   2.581  0.1580 -0.2008  0.4275
  174DG      C2 3981   3.163  -0.217   2.345 -0.1383  0.0141 -0.4018
  174DG      H3 3982   3.710   0.148   2.517  0.1498 -1.2399  1.1253
  174DG      H4 3983   3.674   0.265   2.652  2.2245 -0.0333 -0.8407
  174DG      H5 3984   3.583   0.264   2.516 -0.1570 -0.1152  0.7620
  174DG      H6 3985   3.232  -0.270   2.280  0.1404  0.7704 -0.7299
  174DG      H7 3986   3.073  -0.277   2.355 -0.1139  0.2812  1.9609
  174DG      H8 3987   3.149  -0.117   2.304 -1.3767  0.4549  1.0306
  174DG      O9 3988   3.530   0.108   2.624 -0.2266  0.4240 -0.2714
  174DG     O10 3989   3.229  -0.184   2.470  0.0560  0.1146 -0.2541
  174DG     C11 3990   3.587   0.006   2.706  1.0340 -0.6309 -0.2676
  174DG     C12 3991   3.266  -0.295   2.546  0.3956  0.2546  0.0555
  174DG     H13 3992   3.625   0.067   2.789  3.5949 -2.0664 -0.2823
  174DG     H14 3993   3.657  -0.054   2.648 -1.3281 -3.2168 -0.5969
  174DG     H15 3994   3.343  -0.357   2.500  1.4825 -0.9734  3.2743
  174DG     H16 3995   3.182  -0.365   2.551 -1.8325  2.6062 -1.5406
  174DG     C17 3996   3.476  -0.087   2.760 -0.5268 -0.9989 -0.3995
  174DG     C18 3997   3.322  -0.246   2.678 -0.0400  0.3637  0.4801
  174DG     O19 3998   3.411  -0.141   2.644 -0.6346 -0.1808 -0.0833
  174DG     H20 3999   3.413  -0.026   2.824 -0.1765 -2.5535  1.5331
  174DG     H21 4000   3.512  -0.167   2.826  1.1796 -1.0210 -1.2929
  174DG     H22 4001   3.243  -0.216   2.747 -0.4151 -0.2676  0.3264
  174DG     H23 4002   3.375  -0.333   2.716  1.8959  0.7946 -1.0254
  175DG      C1 4003   0.949   4.882   2.915 -0.4560 -0.8383  0.1193
  175DG      C2 4004   1.584   5.089   2.908 -0.2251  0.2007 -0.2077
  175DG      H3 4005   0.861   4.881   2.981 -1.5070  0.4322 -1.2020
  175DG      H4 4006   1.029   4.810   2.930 -0.5254 -1.8453 -3.4832
  175DG      H5 4007   0.916   4.881   2.811  2.6029  0.7990 -0.9711
  175DG      H6 4008   1.692   5.103   2.921  0.1111 -0.1434 -2.2077
  175DG      H7 4009   1.545   5.042   2.998 -1.5131  1.7616  0.0803
  175DG      H8 4010   1.561   5.020   2.827 -2.2448  1.0510 -0.4106
  175DG      O9 4011   0.999   5.015   2.934  0.4905  0.0140 -0.6368
  175DG     O10 4012   1.534   5.218   2.895 -0.4519 -0.2081 -0.0324
  175DG     C11 4013   1.047   5.042   3.066 -0.0255  0.1241  0.0437
  175DG     C12 4014   1.392   5.218   2.879  0.3363 -0.6253  0.6051
  175DG     H13 4015   1.129   4.975   3.091 -0.0219  0.1826  0.1913
  175DG     H14 4016   0.971   5.021   3.142 -1.2313 -1.4139 -1.4981
  175DG     H15 4017   1.368   5.141   2.806  1.6757  0.2230 -0.7807
  175DG     H16 4018   1.352   5.310   2.837  0.3071 -0.5592  0.7750
  175DG     C17 4019   1.092   5.179   3.081 -0.7492 -0.3721  0.6508
  175DG     C18 4020   1.312   5.190   3.006  0.2573  0.7403  0.2600
  175DG     O19 4021   1.180   5.222   2.978 -0.2938  0.2065 -0.5483
  175DG     H20 4022   1.131   5.207   3.179  1.9568  0.2502 -0.5031
  175DG     H21 4023   1.003   5.240   3.066  0.3832  0.6102 -3.5267
  175DG     H22 4024   1.326   5.086   3.034 -3.0291  0.8061  2.7797
  175DG     H23 4025   1.342   5.252   3.091 -0.6853 -0.6908  1.7072
  176DG      C1 4026   0.493   5.092   0.883 -0.4964 -0.1520 -0.0700
  176DG      C2 4027   0.258   4.611   1.350 -0.1187  0.8484  0.9359
  176DG      H3 4028   0.400   5.086   0.825 -1.3887  0.6056  1.2236
  176DG      H4 4029   0.573   5.027   0.849 -2.1625 -1.3380 -2.0208
  176DG      H5 4030   0.536   5.190   0.862 -0.1961 -0.2123  0.2462
  176DG      H6 4031   0.289   4.583   1.249  0.8865 -0.3486  1.5383
  176DG      H7 4032   0.298   4.542   1.425  2.5758  0.8143 -0.4030
  176DG      H8 4033   0.149   4.616   1.354 -0.1554 -0.1260  1.7237
  176DG      O9 4034   0.460   5.092   1.021  0.3582 -0.2247 -0.3796
  176DG     O10 4035   0.308   4.738   1.389 -0.5897 -0.0482  0.3481
  176DG     C11 4036   0.366   5.001   1.063 -0.4010  0.4264 -0.4311
  176DG     C12 4037   0.451   4.750   1.394  0.0783 -0.0517 -0.7946
  176DG     H13 4038   0.387   4.900   1.029 -0.2559  0.3326 -0.0564
  176DG     H14 4039   0.270   5.026   1.017 -0.7304  0.8911  0.4804
  176DG     H15 4040   0.509   4.695   1.320 -0.1894 -1.1180 -0.2330
  176DG     H16 4041   0.476   4.700   1.487  1.7032 -0.4917 -1.4371
  176DG     C17 4042   0.359   5.003   1.216  0.5506  0.1980  0.1599
  176DG     C18 4043   0.485   4.900   1.396 -0.8980  0.3378  0.0807
  176DG     O19 4044   0.485   4.966   1.266  0.2550  0.4871  0.0690
  176DG     H20 4045   0.276   4.947   1.259 -0.8313  0.5173 -1.9120
  176DG     H21 4046   0.330   5.105   1.238 -1.0535 -0.0324 -0.7397
  176DG     H22 4047   0.426   4.955   1.468 -2.6787  0.0909 -1.1393
  176DG     H23 4048   0.590   4.915   1.423 -0.0734  2.8104 -3.7598
  177DG      C1 4049   1.687   3.991   2.511  0.0058 -0.6515 -0.4921
  177DG      C2 4050   1.231   3.692   2.069  0.3626  0.4894 -0.2997
  177DG      H3 4051   1.601   4.031   2.564 -0.9847 -2.0143 -1.0121
  177DG      H4 4052   1.713   4.076   2.447  0.0417 -0.3884 -0.1305
  177DG      H5 4053   1.775   3.972   2.573  0.7877  1.7021 -0.7908
  177DG      H6 4054   1.198   3.625   1.990  1.9206 -0.5507 -0.1256
  177DG      H7 4055   1.161   3.683   2.152 -2.1475  0.8909 -2.2633
  177DG      H8 4056   1.238   3.794   2.032  0.4786  0.3923 -0.5522
  177DG      O9 4057   1.647   3.879   2.437 -0.3280 -0.6445  0.7675
  177DG     O10 4058   1.363   3.678   2.118  1.2632  0.3772 -0.8744
  177DG     C11 4059   1.750   3.831   2.350  0.7296  0.3731 -0.1160
  177DG     C12 4060   1.464   3.675   2.020  0.1289 -0.5672  0.2790
  177DG     H13 4061   1.752   3.722   2.347  1.5184  0.3552  0.7617
  177DG     H14 4062   1.850   3.855   2.386 -0.2678  1.2590  2.1917
  177DG     H15 4063   1.444   3.749   1.943  2.8734  1.0608  0.9701
  177DG     H16 4064   1.464   3.576   1.975  1.8145 -0.9370  0.9907
  177DG     C17 4065   1.720   3.879   2.200 -0.3704  0.6630 -0.2085
  177DG     C18 4066   1.597   3.702   2.099 -0.0348 -0.2521 -0.1265
  177DG     O19 4067   1.598   3.840   2.148  0.8707  0.0865  0.0396
  177DG     H20 4068   1.797   3.847   2.128  1.1614  1.5327  0.9757
  177DG     H21 4069   1.712   3.987   2.193  0.2975  0.6315 -2.2770
  177DG     H22 4070   1.592   3.624   2.175  1.7284 -0.3866 -0.1042
  177DG     H23 4071   1.683   3.680   2.036 -1.0066 -1.7962 -0.9621
  178DG      C1 4072   2.168   5.384   1.474 -1.3366  0.0010 -0.4755
  178DG      C2 4073   2.213   4.875   1.023  0.0401 -0.0025  0.8033
  178DG      H3 4074   2.217   5.482   1.467 -1.7177  0.2143 -0.2173
  178DG      H4 4075   2.139   5.374   1.578 -1.4246 -0.2002 -0.5188
  178DG      H5 4076   2.073   5.396   1.422 -2.1091 -2.3812  0.2886
  178DG      H6 4077   2.211   4.766   1.021 -0.3957 -0.0045  1.2214
  178DG      H7 4078   2.111   4.910   1.006  0.6825  1.4508 -0.2966
  178DG      H8 4079   2.269   4.913   0.937 -3.1490 -0.9186 -1.8904
  178DG      O9 4080   2.239   5.279   1.414 -0.2268 -0.3816 -0.5648
  178DG     O10 4081   2.254   4.915   1.149  0.1716 -0.0940 -0.3023
  178DG     C11 4082   2.363   5.249   1.482 -0.7070 -0.1228  0.3995
  178DG     C12 4083   2.389   4.881   1.183  0.6042 -0.2240 -0.1904
  178DG     H13 4084   2.377   5.287   1.583  1.1540 -0.7434  0.4068
  178DG     H14 4085   2.442   5.292   1.420 -0.5476  0.7177  1.1693
  178DG     H15 4086   2.452   4.934   1.113 -0.0055  0.8110  0.0224
  178DG     H16 4087   2.398   4.773   1.188  0.4173 -0.1944  1.4558
  178DG     C17 4088   2.388   5.103   1.492  0.3530  0.6040  0.9192
  178DG     C18 4089   2.408   4.929   1.330 -0.0009  0.6521  0.7118
  178DG     O19 4090   2.357   5.063   1.358  0.0967  0.1355 -0.2335
  178DG     H20 4091   2.319   5.058   1.563  0.4046  0.2610  0.7529
  178DG     H21 4092   2.490   5.078   1.523  0.7755 -0.6946 -1.2771
  178DG     H22 4093   2.366   4.863   1.406  1.5110 -0.7474  0.3911
  178DG     H23 4094   2.515   4.922   1.350  0.2816  0.6966 -0.7058
  179DG      C1 4095   0.611   3.599   4.850  0.0352 -0.6605  0.2579
  179DG      C2 4096   0.821   2.964   4.860 -0.2471 -0.0835  0.1563
  179DG      H3 4097   0.662   3.695   4.855 -1.0179 -0.0979  0.4293
  179DG      H4 4098   0.511   3.628   4.883  0.7277  1.8219  0.4027
  179DG      H5 4099   0.608   3.557   4.749 -2.0001  0.8981 -0.4105
  179DG      H6 4100   0.877   2.995   4.772  0.3588 -0.7283  0.3002
  179DG      H7 4101   0.870   2.874   4.898 -0.0636  0.2649  0.7633
  179DG      H8 4102   0.732   2.909   4.832 -0.4076  0.5058 -0.5143
  179DG      O9 4103   0.669   3.507   4.941  0.1751  0.3405  0.3434
  179DG     O10 4104   0.787   3.058   4.954 -0.3471 -0.2822  0.0423
  179DG     C11 4105   0.670   3.543   5.079 -0.6083  0.3295 -0.2975
  179DG     C12 4106   0.899   3.114   5.011 -0.3857  0.3896  0.2808
  179DG     H13 4107   0.576   3.573   5.125 -0.7335 -1.3246  0.6288
  179DG     H14 4108   0.735   3.628   5.100 -0.0933  0.3229 -1.7641
  179DG     H15 4109   0.957   3.164   4.934  0.1308 -0.3194  0.2048
  179DG     H16 4110   0.967   3.039   5.051  0.1811  1.1293  0.7491
  179DG     C17 4111   0.731   3.414   5.153  0.5262  0.1033 -0.2748
  179DG     C18 4112   0.852   3.207   5.122  0.3461 -0.2260 -1.0115
  179DG     O19 4113   0.795   3.319   5.063 -0.2307  0.5488 -0.7474
  179DG     H20 4114   0.651   3.361   5.206  1.8220 -1.0781  0.5727
  179DG     H21 4115   0.817   3.438   5.215 -0.7553 -1.5653  2.3554
  179DG     H22 4116   0.794   3.148   5.193  0.2486  0.4304 -0.5342
  179DG     H23 4117   0.941   3.237   5.178 -1.8334  2.4696  1.3007
  180DG      C1 4118   2.298   3.240   1.695 -0.0566 -0.1495 -0.0687
  180DG      C2 4119   2.930   3.740   1.491 -0.4864  0.6821 -0.3538
  180DG      H3 4120   2.204   3.282   1.730  0.9241  1.5618  0.6279
  180DG      H4 4121   2.297   3.131   1.700 -4.7313 -0.3976 -2.0776
  180DG      H5 4122   2.316   3.277   1.594 -0.0024  0.1617  0.0535
  180DG      H6 4123   2.853   3.757   1.415 -0.1223 -1.4745 -1.2757
  180DG      H7 4124   2.931   3.817   1.568  0.8546 -0.3276  0.6733
  180DG      H8 4125   3.026   3.739   1.440 -0.3792  0.4709 -0.1468
  180DG      O9 4126   2.391   3.289   1.794  0.6432  0.5924  0.1230
  180DG     O10 4127   2.916   3.615   1.554 -0.1813 -0.3928  0.4223
  180DG     C11 4128   2.515   3.223   1.794  0.6859 -0.6159  0.0172
  180DG     C12 4129   2.793   3.593   1.628 -0.2268 -0.1087  0.6682
  180DG     H13 4130   2.502   3.115   1.782  0.8234 -0.6142 -0.1511
  180DG     H14 4131   2.561   3.238   1.891 -2.3396 -2.3286  1.8726
  180DG     H15 4132   2.710   3.626   1.565 -0.1935 -1.6621 -0.2432
  180DG     H16 4133   2.797   3.641   1.726 -1.8559  0.1032  0.6526
  180DG     C17 4134   2.603   3.283   1.682  0.0132  0.2054 -0.1078
  180DG     C18 4135   2.779   3.444   1.655  0.0273  0.8371  0.3891
  180DG     O19 4136   2.663   3.409   1.719  0.1013  0.0481  0.2145
  180DG     H20 4137   2.536   3.299   1.597 -0.2290 -0.4133 -0.0420
  180DG     H21 4138   2.674   3.205   1.652 -0.7549 -0.3720 -0.4562
  180DG     H22 4139   2.789   3.386   1.562 -1.6291  0.2529  0.5449
  180DG     H23 4140   2.857   3.411   1.723  0.0758  0.2833  0.0720
  181DG      C1 4141   2.803   4.221   3.387  0.6903 -0.0747  0.2759
  181DG      C2 4142   3.056   3.523   3.221  0.5997 -0.5655 -0.4228
  181DG      H3 4143   2.862   4.266   3.307  1.4272 -1.3080  0.0847
  181DG      H4 4144   2.781   4.285   3.472  0.5175 -1.1308  1.0526
  181DG      H5 4145   2.709   4.184   3.346  1.2709 -0.0720 -1.1236
  181DG      H6 4146   3.112   3.595   3.161  2.3897  0.8920  2.7549
  181DG      H7 4147   3.123   3.442   3.249  1.2771 -0.0225 -0.4536
  181DG      H8 4148   2.971   3.477   3.169 -0.1219 -0.4167  0.5985
  181DG      O9 4149   2.874   4.112   3.453 -0.1850  0.2037 -0.4970
  181DG     O10 4150   3.007   3.589   3.340 -0.7917 -0.4847  0.0271
  181DG     C11 4151   2.799   4.035   3.546  0.1856 -0.0421  1.0430
  181DG     C12 4152   3.099   3.671   3.412  0.2067  0.7791  0.4082
  181DG     H13 4153   2.712   3.987   3.500 -1.4209  1.7619  2.0401
  181DG     H14 4154   2.762   4.096   3.628  2.5053  2.8206  0.1160
  181DG     H15 4155   3.138   3.754   3.353 -2.2902  1.3914 -0.5491
  181DG     H16 4156   3.178   3.601   3.439  0.1292  0.7281  0.5028
  181DG     C17 4157   2.884   3.922   3.597 -0.5431  0.4128  0.5147
  181DG     C18 4158   3.040   3.745   3.533 -0.1786 -0.2840 -0.2575
  181DG     O19 4159   2.944   3.841   3.493 -0.1607  0.8561 -0.3393
  181DG     H20 4160   2.824   3.860   3.664 -1.4189 -0.3664 -0.9361
  181DG     H21 4161   2.959   3.967   3.662 -0.9705  1.5567  0.2344
  181DG     H22 4162   2.995   3.669   3.598  2.5231 -1.2243  0.6421
  181DG     H23 4163   3.113   3.794   3.597 -2.1290  2.0368  0.3604
  182DG      C1 4164   3.005   3.692   2.795 -0.2409  0.1929 -0.2930
  182DG      C2 4165   3.228   3.218   2.348 -0.5309  0.7873 -1.0234
  182DG      H3 4166   3.047   3.791   2.815 -0.6802  0.3465 -0.1102
  182DG      H4 4167   3.055   3.623   2.862  0.9693 -0.0458 -1.3793
  182DG      H5 4168   2.897   3.693   2.808 -0.3599  0.2477 -1.2073
  182DG      H6 4169   3.309   3.177   2.287  0.2060 -1.0148  1.0329
  182DG      H7 4170   3.226   3.152   2.434 -0.9193  2.1282  0.0195
  182DG      H8 4171   3.135   3.214   2.291 -0.5200 -0.4263 -1.0015
  182DG      O9 4172   3.046   3.638   2.667  0.3809 -0.6987  0.0160
  182DG     O10 4173   3.239   3.352   2.407  0.7492  0.0466 -0.0615
  182DG     C11 4174   3.016   3.730   2.563  0.4919 -0.6741 -0.5792
  182DG     C12 4175   3.239   3.444   2.298 -0.1315  0.2979  0.8003
  182DG     H13 4176   3.066   3.825   2.579 -0.3644 -0.2212 -0.4896
  182DG     H14 4177   2.908   3.743   2.569  0.4872 -0.9454  0.0220
  182DG     H15 4178   3.145   3.443   2.243  0.9845  1.8038 -1.2811
  182DG     H16 4179   3.323   3.424   2.231  0.1578  0.9357  0.9568
  182DG     C17 4180   3.063   3.680   2.431 -0.4770 -0.3277  0.3145
  182DG     C18 4181   3.266   3.583   2.346  0.3464  0.7535 -0.0147
  182DG     O19 4182   3.195   3.623   2.463 -0.4576 -0.7870  0.0065
  182DG     H20 4183   3.058   3.767   2.366  0.0501  0.1397  0.8865
  182DG     H21 4184   3.004   3.598   2.391  0.8521 -0.6865 -0.9834
  182DG     H22 4185   3.369   3.589   2.382 -0.3230 -0.4299  2.3208
  182DG     H23 4186   3.257   3.661   2.271 -2.8913  1.0871  0.5604
  183DG      C1 4187   5.117   4.052   1.299 -0.5692  0.1484  0.2069
  183DG      C2 4188   5.316   3.999   0.680 -0.0817 -0.9524 -0.4074
  183DG      H3 4189   5.057   3.970   1.261 -0.6446 -0.9431  2.5264
  183DG      H4 4190   5.066   4.142   1.332  2.6480  2.6715 -1.0381
  183DG      H5 4191   5.149   4.005   1.392 -1.3568 -0.0196  0.4007
  183DG      H6 4192   5.403   3.952   0.634 -1.4309 -1.8293 -2.1902
  183DG      H7 4193   5.230   3.933   0.691 -0.8894  0.0496 -0.6155
  183DG      H8 4194   5.294   4.073   0.604  1.1841  1.8141  1.7255
  183DG      O9 4195   5.222   4.097   1.206 -0.3032  0.1750  0.7050
  183DG     O10 4196   5.350   4.069   0.802  0.5386 -0.6114 -0.4544
  183DG     C11 4197   5.324   4.185   1.258  0.2769 -0.9612  0.7719
  183DG     C12 4198   5.461   4.155   0.798 -0.3162  0.3708  0.3646
  183DG     H13 4199   5.367   4.157   1.354  1.2812  0.0540  0.6331
  183DG     H14 4200   5.283   4.285   1.272  0.5838 -0.8360  0.7737
  183DG     H15 4201   5.438   4.250   0.751 -1.9043  1.0306  2.3424
  183DG     H16 4202   5.530   4.105   0.729 -0.5125  0.6058 -0.0030
  183DG     C17 4203   5.451   4.184   1.166 -0.4414 -0.7051  1.2604
  183DG     C18 4204   5.516   4.171   0.939 -0.1004  0.3125 -0.0854
  183DG     O19 4205   5.408   4.189   1.029 -0.0386  0.6773  0.1249
  183DG     H20 4206   5.521   4.102   1.186  1.1156  0.0649 -0.7090
  183DG     H21 4207   5.511   4.274   1.180  0.0611 -0.5570 -1.3780
  183DG     H22 4208   5.585   4.090   0.962  1.3956  0.8575 -2.3111
  183DG     H23 4209   5.587   4.251   0.961  1.3928 -0.7908 -0.7945
  184DG      C1 4210   4.043   3.136   4.942  0.4155 -0.0278 -0.5043
  184DG      C2 4211   4.104   3.916   4.974  0.5492  0.2135  0.7472
  184DG      H3 4212   4.001   3.087   5.030 -1.8299  3.2370  0.4606
  184DG      H4 4213   4.073   3.063   4.868 -0.1652  0.2819 -1.0570
  184DG      H5 4214   3.964   3.200   4.901  0.0065  0.7857  1.4109
  184DG      H6 4215   4.172   3.995   5.005  0.1717  1.1094 -0.6359
  184DG      H7 4216   4.061   3.946   4.878 -0.0417 -0.2466  0.8630
  184DG      H8 4217   4.035   3.906   5.059  1.4669 -0.9457  1.3815
  184DG      O9 4218   4.151   3.217   4.997  0.1300 -0.0625 -0.2088
  184DG     O10 4219   4.171   3.793   4.950 -0.2926 -0.1847 -0.2443
  184DG     C11 4220   4.235   3.277   4.898 -0.5015 -0.0614 -0.1773
  184DG     C12 4221   4.196   3.724   5.071 -0.0551  0.6793 -0.2834
  184DG     H13 4222   4.180   3.330   4.821 -0.0924 -0.1375 -0.5267
  184DG     H14 4223   4.282   3.191   4.852  0.6198  0.6198 -0.3625
  184DG     H15 4224   4.109   3.674   5.113  1.8332 -2.2795  0.4132
  184DG     H16 4225   4.238   3.793   5.144  2.6812 -0.5141 -0.5994
  184DG     C17 4226   4.327   3.389   4.953 -0.0018  0.1391 -0.1745
  184DG     C18 4227   4.292   3.603   5.045 -0.3761 -0.4947 -0.0703
  184DG     O19 4228   4.229   3.489   4.984  0.3099 -0.0012  0.1448
  184DG     H20 4229   4.395   3.414   4.872  1.1370 -2.2168 -0.0205
  184DG     H21 4230   4.391   3.355   5.034  0.3467  0.7649 -0.1854
  184DG     H22 4231   4.376   3.644   4.989 -1.0523 -2.1258 -2.4223
  184DG     H23 4232   4.333   3.584   5.145 -0.6219 -1.1589 -0.0891
  185DG      C1 4233   3.568   2.015   1.913  0.0094 -0.0237 -0.0103
  185DG      C2 4234   3.811   2.609   1.949 -0.1671 -0.2178  0.2010
  185DG      H3 4235   3.576   2.000   1.805 -0.4447 -1.0696  0.0867
  185DG      H4 4236   3.490   1.946   1.945 -1.7407  2.2141  0.8134
  185DG      H5 4237   3.662   1.991   1.961 -0.0742  0.7672  0.5801
  185DG      H6 4238   3.792   2.592   1.843  0.9867 -6.0144  0.6178
  185DG      H7 4239   3.822   2.717   1.961  1.8916 -0.1441 -1.6333
  185DG      H8 4240   3.915   2.581   1.963  0.6304  2.4742  0.2166
  185DG      O9 4241   3.538   2.150   1.955  0.3956 -0.2430  0.2329
  185DG     O10 4242   3.717   2.549   2.041 -0.4303 -0.1251  0.6300
  185DG     C11 4243   3.405   2.179   1.994 -0.2411 -0.4742  0.7175
  185DG     C12 4244   3.585   2.598   2.019 -0.3778  0.4786 -0.1733
  185DG     H13 4245   3.378   2.147   2.095 -2.7435  0.1404  0.3025
  185DG     H14 4246   3.327   2.137   1.932  0.1163  0.3221 -0.3153
  185DG     H15 4247   3.540   2.571   1.923 -0.6377 -0.9909  0.3394
  185DG     H16 4248   3.574   2.704   2.043  2.1069  0.4883  1.1745
  185DG     C17 4249   3.393   2.328   2.014 -0.6591 -0.4652  0.4460
  185DG     C18 4250   3.492   2.514   2.113 -0.1564  0.1690  0.2939
  185DG     O19 4251   3.504   2.374   2.096  1.0774  0.0948 -0.3702
  185DG     H20 4252   3.291   2.331   2.053 -0.4362 -2.9944  1.4283
  185DG     H21 4253   3.392   2.375   1.916  1.4147  0.1941  0.6868
  185DG     H22 4254   3.523   2.540   2.215 -0.6779 -0.8706  0.7384
  185DG     H23 4255   3.389   2.551   2.116  0.1002  0.8972  0.2814
  186DG      C1 4256   3.745   2.664   1.307 -0.2159 -0.5625 -0.3280
  186DG      C2 4257   4.300   2.602   0.828  0.4695 -0.3254 -0.0625
  186DG      H3 4258   3.804   2.752   1.335  0.8563 -0.9005 -1.4795
  186DG      H4 4259   3.753   2.586   1.383 -1.2787  0.7830  1.2347
  186DG      H5 4260   3.639   2.687   1.323 -1.0611 -3.7110 -0.7326
  186DG      H6 4261   4.316   2.693   0.886  1.6856 -0.5140 -0.0854
  186DG      H7 4262   4.367   2.521   0.857  0.0193 -0.2376  1.3144
  186DG      H8 4263   4.319   2.624   0.723  0.5725 -1.2838 -0.2494
  186DG      O9 4264   3.749   2.620   1.180 -0.0615  0.3518  0.2768
  186DG     O10 4265   4.164   2.566   0.849  0.5365  0.5741  0.0562
  186DG     C11 4266   3.699   2.703   1.081  0.1193  0.0434  0.1366
  186DG     C12 4267   4.072   2.665   0.801 -0.3005 -0.0315  0.7174
  186DG     H13 4268   3.738   2.803   1.099  1.2785 -0.2280 -0.7530
  186DG     H14 4269   3.590   2.709   1.085  0.0753 -0.1777 -0.6910
  186DG     H15 4270   4.097   2.688   0.698 -0.4957  2.2775  1.1193
  186DG     H16 4271   4.078   2.762   0.850 -0.1850 -0.0072  0.6546
  186DG     C17 4272   3.751   2.649   0.947  0.9300 -0.0528 -0.2277
  186DG     C18 4273   3.929   2.624   0.815 -0.3929 -0.6273  0.1647
  186DG     O19 4274   3.886   2.676   0.936  0.2467  0.2472 -0.0500
  186DG     H20 4275   3.693   2.700   0.870  0.5930 -1.4260 -0.9277
  186DG     H21 4276   3.728   2.542   0.940  0.3906  0.0389  0.0687
  186DG     H22 4277   3.878   2.672   0.731 -2.4989 -0.8574  1.2488
  186DG     H23 4278   3.907   2.517   0.810 -0.8688 -0.4800 -1.6810
  187DG      C1 4279   0.240   2.114   0.118 -0.6123  1.0126 -0.3781
  187DG      C2 4280   0.374   2.264   0.750 -0.2335  0.1753  0.3450
  187DG      H3 4281   0.139   2.151   0.101 -0.9370  0.1311 -0.4117
  187DG      H4 4282   0.218   2.018   0.165  0.5029  1.0944  0.3524
  187DG      H5 4283   0.275   2.101   0.015 -0.8257 -2.5465 -0.1344
  187DG      H6 4284   0.405   2.345   0.815  1.0935 -1.4680  1.8510
  187DG      H7 4285   0.270   2.242   0.774 -0.0227  1.0457  2.1949
  187DG      H8 4286   0.436   2.178   0.775 -0.0105  0.8095  2.0628
  187DG      O9 4287   0.309   2.198   0.202 -0.4174 -0.0216 -0.1519
  187DG     O10 4288   0.384   2.311   0.619  0.4996  0.2774  0.1843
  187DG     C11 4289   0.444   2.223   0.161 -0.5356 -0.3347  0.4943
  187DG     C12 4290   0.498   2.395   0.601 -0.1781  0.2397 -0.5879
  187DG     H13 4291   0.458   2.227   0.053 -3.4729 -0.2792  0.0410
  187DG     H14 4292   0.506   2.141   0.199 -0.5846 -0.5323  0.1528
  187DG     H15 4293   0.585   2.335   0.628 -0.0166  1.9183  3.2297
  187DG     H16 4294   0.508   2.473   0.677  4.4586 -0.9143  0.3659
  187DG     C17 4295   0.491   2.352   0.232  0.3696 -0.0223 -0.0398
  187DG     C18 4296   0.513   2.443   0.455 -0.0879  0.2249  0.2682
  187DG     O19 4297   0.488   2.329   0.372  0.1651  0.1090  0.2464
  187DG     H20 4298   0.418   2.425   0.198 -1.5256 -1.4757  0.7455
  187DG     H21 4299   0.590   2.383   0.196 -1.0665  3.5315 -1.4028
  187DG     H22 4300   0.433   2.516   0.442 -0.4596 -0.2639 -0.2403
  187DG     H23 4301   0.607   2.496   0.439 -0.5810  1.0643  0.0948
  188DG      C1 4302   2.188   3.322   4.965  1.1474 -0.5138  0.0024
  188DG      C2 4303   1.647   3.139   4.608  0.1268 -0.0274  0.0252
  188DG      H3 4304   2.271   3.389   4.990  1.2823 -0.6836  0.0133
  188DG      H4 4305   2.233   3.226   4.942  0.7417 -0.9949  1.1494
  188DG      H5 4306   2.132   3.322   5.059  1.6542  0.9477  0.3354
  188DG      H6 4307   1.709   3.055   4.578 -0.8930  0.0246 -2.4585
  188DG      H7 4308   1.605   3.106   4.703  1.6401 -0.1023  0.7033
  188DG      H8 4309   1.565   3.138   4.536  1.3699  0.9195 -1.4499
  188DG      O9 4310   2.099   3.384   4.864  0.1258 -0.0512  0.1373
  188DG     O10 4311   1.727   3.258   4.621 -0.3646  0.4811 -0.3154
  188DG     C11 4312   2.158   3.415   4.734  0.2321 -0.3054 -0.1668
  188DG     C12 4313   1.774   3.299   4.490 -0.0064 -0.0641  0.5657
  188DG     H13 4314   2.183   3.323   4.682  1.8059 -0.0875  0.1745
  188DG     H14 4315   2.248   3.471   4.759 -1.7462  2.2976  1.7280
  188DG     H15 4316   1.692   3.305   4.419  0.4824 -0.3654 -0.0411
  188DG     H16 4317   1.837   3.221   4.448  2.9264  2.8748 -1.0282
  188DG     C17 4318   2.058   3.484   4.639 -0.5367  1.0237 -0.1895
  188DG     C18 4319   1.849   3.433   4.517 -0.0252  0.6009  0.3223
  188DG     O19 4320   1.951   3.390   4.611 -0.3219 -0.2202 -0.5153
  188DG     H20 4321   2.109   3.506   4.545 -0.5822 -0.6942 -0.6683
  188DG     H21 4322   2.027   3.583   4.671 -0.6703  1.2039 -0.8610
  188DG     H22 4323   1.904   3.471   4.431  2.8891  0.1223  1.8424
  188DG     H23 4324   1.776   3.511   4.536 -1.8645 -0.2119 -2.7148
  189DG      C1 4325   2.566   3.975   3.841  0.2788 -0.1621  0.3636
  189DG      C2 4326   2.721   4.288   4.702  0.7291  1.2082 -0.3714
  189DG      H3 4327   2.458   3.975   3.829  0.3798  0.6269 -0.6451
  189DG      H4 4328   2.587   3.882   3.895 -1.9768  0.2384  2.0406
  189DG      H5 4329   2.601   3.974   3.737 -0.5581  0.9213  0.0598
  189DG      H6 4330   2.679   4.204   4.758  1.1604  2.6458  2.2639
  189DG      H7 4331   2.798   4.334   4.765  0.3911  1.3556 -0.0620
  189DG      H8 4332   2.636   4.355   4.691 -1.4452 -1.3434 -0.1090
  189DG      O9 4333   2.611   4.090   3.921 -0.2885  0.0301  0.1473
  189DG     O10 4334   2.772   4.236   4.577 -0.4164 -0.4852 -0.3227
  189DG     C11 4335   2.548   4.091   4.051 -0.2327  0.5092  0.5799
  189DG     C12 4336   2.676   4.178   4.497  0.2766  0.8483 -0.3090
  189DG     H13 4337   2.504   3.993   4.068 -0.6339  0.4686 -0.6282
  189DG     H14 4338   2.479   4.174   4.062  0.5531  1.9893 -3.7207
  189DG     H15 4339   2.584   4.235   4.487 -0.2560  0.1803  0.5219
  189DG     H16 4340   2.645   4.080   4.535  1.3027  0.0284 -1.5333
  189DG     C17 4341   2.672   4.112   4.138  0.1497 -0.5527  0.1974
  189DG     C18 4342   2.734   4.165   4.361 -0.1140 -0.4412  0.1611
  189DG     O19 4343   2.629   4.127   4.273 -0.1509 -0.5060  0.1327
  189DG     H20 4344   2.729   4.201   4.111  0.4683 -0.7955  0.0688
  189DG     H21 4345   2.737   4.026   4.126  1.4864  0.3963  0.4564
  189DG     H22 4346   2.783   4.257   4.329  0.8235 -0.8590  0.3535
  189DG     H23 4347   2.806   4.084   4.359  0.2392 -0.2120  1.7941
  190DG      C1 4348   1.323   1.547   1.623 -0.0131 -0.5880  0.6117
  190DG      C2 4349   1.981   1.402   2.075 -0.8886 -0.9692  0.5167
  190DG      H3 4350   1.266   1.633   1.659 -0.3488 -0.7686  0.5117
  190DG      H4 4351   1.262   1.461   1.651 -0.0151 -0.9508 -0.4670
  190DG      H5 4352   1.324   1.546   1.514  0.4918  0.8870  0.5833
  190DG      H6 4353   2.070   1.373   2.020  0.1881  0.0939  1.6307
  190DG      H7 4354   1.971   1.511   2.081  1.1182 -0.7894  1.4267
  190DG      H8 4355   1.988   1.346   2.168 -3.0160 -0.0855  1.2875
  190DG      O9 4356   1.444   1.540   1.694  0.0093 -0.0653 -0.0105
  190DG     O10 4357   1.867   1.358   1.999 -0.3023  0.5321  0.0103
  190DG     C11 4358   1.415   1.517   1.834  0.3712 -0.2850 -0.6011
  190DG     C12 4359   1.846   1.433   1.872 -0.3038  0.5061 -0.0434
  190DG     H13 4360   1.352   1.432   1.864  1.1471 -0.4691  0.6164
  190DG     H14 4361   1.358   1.599   1.876 -1.3118 -1.6883 -0.0079
  190DG     H15 4362   1.939   1.420   1.818 -0.1831 -1.8843  0.6251
  190DG     H16 4363   1.843   1.540   1.888  1.5645  0.7172 -0.9176
  190DG     C17 4364   1.551   1.515   1.901 -0.5957  0.1013 -0.1324
  190DG     C18 4365   1.722   1.373   1.803 -0.2325 -0.8877 -0.5486
  190DG     O19 4366   1.606   1.387   1.894  0.1372  0.4418 -0.1733
  190DG     H20 4367   1.521   1.535   2.004  0.7713 -0.9831  0.5078
  190DG     H21 4368   1.621   1.591   1.868 -2.1130  1.2087 -0.9266
  190DG     H22 4369   1.698   1.418   1.707  0.9272 -0.1459 -0.5072
  190DG     H23 4370   1.717   1.266   1.780 -0.8405 -0.9920  0.0279
  191DG      C1 4371   0.422   0.108   0.775 -0.0686 -0.4387  0.4575
  191DG      C2 4372  -0.004   0.091   0.303  1.0720  0.2901 -0.2575
  191DG      H3 4373   0.381   0.192   0.832  0.8585 -1.2211  2.3550
  191DG      H4 4374   0.492   0.150   0.703 -1.0845 -0.4701 -0.5940
  191DG      H5 4375   0.482   0.051   0.846  2.1335  0.1067 -0.8761
  191DG      H6 4376  -0.044   0.178   0.355 -0.7715 -0.9311  0.5110
  191DG      H7 4377   0.074   0.128   0.237  1.1734  0.4338 -0.0554
  191DG      H8 4378  -0.081   0.051   0.236  0.7435  0.2410  0.1448
  191DG      O9 4379   0.318   0.037   0.709  0.5022  0.1922 -0.0521
  191DG     O10 4380   0.046  -0.005   0.393  0.3081 -0.4793  0.7327
  191DG     C11 4381   0.262  -0.060   0.800 -0.3172 -0.4775 -0.0687
  191DG     C12 4382  -0.043  -0.064   0.491 -0.0883 -0.2334  0.1621
  191DG     H13 4383   0.254  -0.027   0.904 -1.9974 -0.2585 -0.2320
  191DG     H14 4384   0.331  -0.144   0.802  0.4655  0.1719  0.6585
  191DG     H15 4385  -0.136  -0.094   0.442 -0.9667  2.0199  0.2957
  191DG     H16 4386  -0.077   0.011   0.563  0.4148  0.3242 -0.1737
  191DG     C17 4387   0.130  -0.112   0.751  0.2730 -0.1508  0.0958
  191DG     C18 4388   0.024  -0.184   0.553  0.3632  0.1082 -0.4891
  191DG     O19 4389   0.143  -0.140   0.609 -0.0758  0.4640  0.5140
  191DG     H20 4390   0.052  -0.036   0.754  0.5794  0.1666  0.0889
  191DG     H21 4391   0.094  -0.200   0.804  0.9725 -0.0716  0.7199
  191DG     H22 4392  -0.030  -0.242   0.628  0.0053  0.0659 -0.7768
  191DG     H23 4393   0.059  -0.256   0.478  0.3983 -0.4328  0.0381
  192DG      C1 4394   1.834   1.864   0.591  0.4631 -0.1400  0.0165
  192DG      C2 4395   2.317   1.291   0.162 -0.8540  1.2298  0.1867
  192DG      H3 4396   1.804   1.958   0.637  0.6390 -0.3616  0.5856
  192DG      H4 4397   1.847   1.792   0.671 -1.2338 -1.7892 -1.0963
  192DG      H5 4398   1.757   1.821   0.526  0.0041  0.6889  0.0021
  192DG      H6 4399   2.259   1.249   0.079 -2.1596 -1.2832  2.2146
  192DG      H7 4400   2.422   1.285   0.134 -1.4174 -2.6924 -1.8302
  192DG      H8 4401   2.314   1.222   0.247 -1.7624 -1.1660 -1.6535
  192DG      O9 4402   1.959   1.876   0.531 -0.1017 -0.2728  0.3238
  192DG     O10 4403   2.281   1.425   0.186 -0.2663 -0.3109 -0.4242
  192DG     C11 4404   2.002   1.762   0.460  0.0690  0.1205 -0.1996
  192DG     C12 4405   2.335   1.457   0.312  0.8076 -1.4997 -0.3434
  192DG     H13 4406   1.948   1.747   0.367 -3.0594 -1.0499  1.6320
  192DG     H14 4407   1.987   1.677   0.528 -0.4356  0.1138 -0.3179
  192DG     H15 4408   2.441   1.432   0.321  0.3897 -2.7389  2.0477
  192DG     H16 4409   2.293   1.397   0.393 -0.6184  0.4141  0.3989
  192DG     C17 4410   2.154   1.763   0.425 -0.2101 -0.2864  0.5380
  192DG     C18 4411   2.313   1.607   0.339  0.5461 -0.3916 -0.4204
  192DG     O19 4412   2.179   1.638   0.364  0.1441 -0.5297  0.2566
  192DG     H20 4413   2.206   1.787   0.518  1.4362 -0.9651 -0.1672
  192DG     H21 4414   2.169   1.852   0.364  0.7577 -0.0783  1.0432
  192DG     H22 4415   2.358   1.633   0.435 -0.4323 -0.5610  0.1000
  192DG     H23 4416   2.362   1.662   0.259  0.8341  1.6040  1.0510
  193DG      C1 4417   5.024   0.021   4.525  0.7086 -0.2500 -0.3616
  193DG      C2 4418   5.139  -0.428   3.992  0.1704 -0.3160  0.4550
  193DG      H3 4419   4.916   0.014   4.513  0.4939  1.2175  0.5717
  193DG      H4 4420   5.051   0.111   4.469 -0.2381 -0.1163 -0.6207
  193DG      H5 4421   5.037   0.049   4.629 -0.5030 -0.6681 -0.0816
  193DG      H6 4422   5.053  -0.379   3.946  1.1207  0.2348 -0.7909
  193DG      H7 4423   5.228  -0.409   3.931  0.1495 -0.3756  0.4058
  193DG      H8 4424   5.128  -0.536   3.983  1.9454 -0.5173  0.3156
  193DG      O9 4425   5.102  -0.078   4.464  0.1242  0.4894 -0.2684
  193DG     O10 4426   5.148  -0.380   4.131  0.1350  0.2570  0.6435
  193DG     C11 4427   5.235  -0.042   4.473  0.0545  0.0513 -0.0741
  193DG     C12 4428   5.264  -0.417   4.192 -0.2397  0.0779 -0.3116
  193DG     H13 4429   5.274  -0.058   4.574 -1.1424 -1.9399  0.1264
  193DG     H14 4430   5.263   0.058   4.440  0.4494 -0.7220 -2.2323
  193DG     H15 4431   5.329  -0.476   4.126  0.9990 -2.2310  2.7266
  193DG     H16 4432   5.241  -0.471   4.284 -3.4231 -2.4747 -2.3933
  193DG     C17 4433   5.325  -0.146   4.409 -0.1758  0.7627 -0.7598
  193DG     C18 4434   5.336  -0.288   4.220  0.6491 -0.1564 -0.5541
  193DG     O19 4435   5.259  -0.191   4.289  0.0778  0.4907 -0.0334
  193DG     H20 4436   5.330  -0.234   4.473 -2.4771  0.9974 -0.1918
  193DG     H21 4437   5.424  -0.105   4.389  1.5363 -2.2793  0.6049
  193DG     H22 4438   5.417  -0.326   4.284  2.6137  2.2406 -1.4630
  193DG     H23 4439   5.380  -0.248   4.129  1.7404 -0.7591 -0.3097
  194DG      C1 4440   3.680   0.208   0.107 -0.5138  0.1779 -0.3394
  194DG      C2 4441   3.760   0.077  -0.615  0.6005  0.1263  0.0258
  194DG      H3 4442   3.691   0.316   0.094  1.2122  0.0298 -0.2391
  194DG      H4 4443   3.761   0.162   0.163 -0.5463  0.3352 -0.1635
  194DG      H5 4444   3.589   0.195   0.166 -1.9233 -0.1906 -2.4743
  194DG      H6 4445   3.668   0.119  -0.656  1.0284  0.8103 -0.2302
  194DG      H7 4446   3.828   0.161  -0.618  0.1857  0.5660  1.6735
  194DG      H8 4447   3.793   0.001  -0.686 -1.0650 -0.2237 -0.4250
  194DG      O9 4448   3.673   0.148  -0.015  0.4291  0.4563  0.5950
  194DG     O10 4449   3.736   0.031  -0.489 -0.3146 -0.1995  0.4325
  194DG     C11 4450   3.678   0.006  -0.009 -0.4363  0.0163  0.3025
  194DG     C12 4451   3.611  -0.042  -0.479 -0.4066  0.3947 -0.0356
  194DG     H13 4452   3.652  -0.034   0.089  1.7327 -1.0245  0.5272
  194DG     H14 4453   3.778  -0.035  -0.024 -1.7905 -3.0281 -1.1304
  194DG     H15 4454   3.600  -0.120  -0.555 -0.1096  2.3127 -2.1555
  194DG     H16 4455   3.527   0.026  -0.492  0.7583  1.7294 -0.8993
  194DG     C17 4456   3.584  -0.059  -0.114  0.4280  1.1362 -0.4501
  194DG     C18 4457   3.597  -0.110  -0.342  0.0088  0.5819 -0.3967
  194DG     O19 4458   3.629  -0.017  -0.236  0.1445 -0.0387  0.2600
  194DG     H20 4459   3.492  -0.005  -0.090  1.0819  1.5648  1.2012
  194DG     H21 4460   3.581  -0.167  -0.100  0.1941  1.3697  1.6239
  194DG     H22 4461   3.505  -0.165  -0.326  0.9512 -2.1771 -3.4484
  194DG     H23 4462   3.676  -0.184  -0.333 -1.3041 -0.6123  2.4983
  195DG      C1 4463   3.606   1.050   1.097  0.1236 -0.0517  0.1706
  195DG      C2 4464   3.325   1.404   1.529 -0.3070  0.2811 -0.6114
  195DG      H3 4465   3.692   1.112   1.122 -0.6323  0.6084  1.2347
  195DG      H4 4466   3.610   1.023   0.992 -0.1787 -0.5494  0.2797
  195DG      H5 4467   3.631   0.958   1.151 -2.5177  0.0701  1.7656
  195DG      H6 4468   3.317   1.384   1.636  1.6903 -2.0466 -0.8064
  195DG      H7 4469   3.424   1.446   1.511  1.8330 -2.3342  3.5747
  195DG      H8 4470   3.257   1.484   1.497 -0.4567  0.3551 -0.1159
  195DG      O9 4471   3.482   1.103   1.133 -0.0615  0.1973  0.0458
  195DG     O10 4472   3.316   1.281   1.462  0.5626  0.1308  0.7458
  195DG     C11 4473   3.374   1.008   1.139 -0.0119 -1.1066 -0.4871
  195DG     C12 4474   3.178   1.226   1.461 -0.5577  0.3747 -1.0580
  195DG     H13 4475   3.400   0.946   1.225 -0.9146  0.2028  0.7846
  195DG     H14 4476   3.387   0.950   1.048  0.1993 -0.0477 -1.1563
  195DG     H15 4477   3.116   1.305   1.418 -3.6980 -0.3342  1.7963
  195DG     H16 4478   3.146   1.185   1.556 -0.2803  0.9759 -0.6928
  195DG     C17 4479   3.230   1.076   1.137 -0.5455  0.7667 -0.1112
  195DG     C18 4480   3.193   1.112   1.369 -1.4673 -0.5391  0.3025
  195DG     O19 4481   3.231   1.168   1.244  0.5209 -0.2590 -0.0156
  195DG     H20 4482   3.152   1.001   1.147  0.7466 -0.2979  3.2033
  195DG     H21 4483   3.220   1.129   1.042  1.3322  0.8644 -0.3078
  195DG     H22 4484   3.270   1.043   1.403 -0.8025 -0.7467 -1.5313
  195DG     H23 4485   3.099   1.057   1.377 -0.3349 -2.8660 -1.1558
  196DG      C1 4486   4.011   4.293   1.720 -0.4092 -0.4478 -0.1963
  196DG      C2 4487   4.336   3.580   1.703  0.1772 -0.3509 -0.1223
  196DG      H3 4488   3.986   4.312   1.615 -1.2187 -0.4894 -0.0144
  196DG      H4 4489   4.037   4.388   1.768 -2.4544  0.7369 -1.2742
  196DG      H5 4490   3.922   4.253   1.768 -2.0132  1.1322 -1.6848
  196DG      H6 4491   4.255   3.535   1.646  0.2349 -1.2651  0.5020
  196DG      H7 4492   4.425   3.572   1.641 -0.1789  0.5069 -0.7602
  196DG      H8 4493   4.348   3.522   1.795 -1.5871  2.7926  2.3075
  196DG      O9 4494   4.122   4.205   1.725 -0.0910 -0.0780  0.4994
  196DG     O10 4495   4.286   3.710   1.747  0.2076 -0.0238 -0.3746
  196DG     C11 4496   4.155   4.179   1.864 -0.3592  0.3403  0.0416
  196DG     C12 4497   4.330   3.818   1.658 -0.2124  0.3314 -0.0569
  196DG     H13 4498   4.081   4.119   1.916  1.0977 -1.1374  0.4620
  196DG     H14 4499   4.170   4.275   1.913  1.1657  0.1968 -0.0892
  196DG     H15 4500   4.308   3.795   1.554 -1.8457 -1.1535  0.5591
  196DG     H16 4501   4.438   3.812   1.674 -0.1715  0.7369 -0.1574
  196DG     C17 4502   4.292   4.103   1.878  0.2882  0.3101 -0.4359
  196DG     C18 4503   4.263   3.953   1.693  0.4107  0.0009 -0.3426
  196DG     O19 4504   4.295   3.970   1.830  0.2491  0.2852 -0.3685
  196DG     H20 4505   4.325   4.097   1.981  0.7775  0.9023 -0.5541
  196DG     H21 4506   4.362   4.159   1.816  0.3888 -0.1717 -0.7674
  196DG     H22 4507   4.321   4.029   1.642  1.8547 -0.2018  0.9089
  196DG     H23 4508   4.155   3.962   1.683  0.3560 -0.0186  0.1977
  197DG      C1 4509   3.408   1.403   0.978  0.2888  0.1807  0.1464
  197DG      C2 4510   3.677   1.066   1.442 -0.1492  0.9323  0.0574
  197DG      H3 4511   3.406   1.492   0.915  0.5499  1.1577  1.4699
  197DG      H4 4512   3.307   1.372   1.006 -0.2580 -1.1673 -2.8709
  197DG      H5 4513   3.449   1.322   0.918  2.2232  2.3904 -1.7221
  197DG      H6 4514   3.670   1.057   1.550  1.1181 -0.8537  0.0409
  197DG      H7 4515   3.593   1.009   1.400  0.7464  0.3714 -1.0340
  197DG      H8 4516   3.769   1.014   1.415 -0.1790  0.3510  1.0465
  197DG      O9 4517   3.489   1.441   1.088 -0.1667 -0.3438  0.6548
  197DG     O10 4518   3.672   1.196   1.390 -0.8536  0.0637  0.0100
  197DG     C11 4519   3.613   1.494   1.041 -0.5561 -1.0054  0.3425
  197DG     C12 4520   3.797   1.267   1.403 -0.1664  0.3753  0.0022
  197DG     H13 4521   3.581   1.582   0.986 -2.3866 -0.1428  2.6380
  197DG     H14 4522   3.660   1.433   0.964  2.5011  2.2668 -0.6810
  197DG     H15 4523   3.866   1.222   1.331  1.0018  2.2680 -0.1424
  197DG     H16 4524   3.834   1.265   1.505 -3.2261 -0.3236  1.1807
  197DG     C17 4525   3.700   1.527   1.163  0.3798 -0.1334 -0.2021
  197DG     C18 4526   3.779   1.411   1.355  0.3456 -0.5260  0.4865
  197DG     O19 4527   3.714   1.399   1.228 -0.2102 -0.1573 -0.1171
  197DG     H20 4528   3.641   1.598   1.221 -0.3859 -1.3922  0.5954
  197DG     H21 4529   3.792   1.584   1.146 -1.1645  2.0049 -1.8921
  197DG     H22 4530   3.708   1.456   1.424  1.4738 -0.8021  1.8912
  197DG     H23 4531   3.867   1.476   1.357 -0.0617  0.0877 -0.7430
  198DG      C1 4532   3.233   3.671   4.775 -0.4167 -0.1350 -0.2574
  198DG      C2 4533   3.065   3.814   4.106  0.6058 -0.2940  0.1358
  198DG      H3 4534   3.146   3.640   4.833 -0.6519 -1.0226 -1.0486
  198DG      H4 4535   3.300   3.742   4.823  0.7775 -0.7452 -0.9744
  198DG      H5 4536   3.287   3.584   4.736 -0.5970 -0.3055 -0.1299
  198DG      H6 4537   3.076   3.705   4.108  0.4423 -0.3193 -0.3217
  198DG      H7 4538   2.960   3.826   4.078  0.0438 -3.5289  0.3948
  198DG      H8 4539   3.125   3.869   4.034 -0.0335 -0.4114 -0.5004
  198DG      O9 4540   3.180   3.745   4.663  0.4014  0.9653  0.1489
  198DG     O10 4541   3.098   3.850   4.241  0.1610  0.0787 -0.2284
  198DG     C11 4542   3.114   3.862   4.708  0.5628  0.2801  0.4078
  198DG     C12 4543   3.071   3.990   4.241 -0.6693  0.3593  0.0765
  198DG     H13 4544   3.149   3.897   4.806  0.7181 -3.5559  1.8840
  198DG     H14 4545   3.009   3.845   4.732  0.8737 -0.8291  1.0870
  198DG     H15 4546   2.962   4.000   4.236 -0.7116 -0.3325 -0.7446
  198DG     H16 4547   3.127   4.044   4.164 -0.8513 -0.8271 -0.9233
  198DG     C17 4548   3.142   3.980   4.618 -0.4259 -0.2628 -0.8743
  198DG     C18 4549   3.131   4.034   4.380  0.1585  0.6477 -0.0672
  198DG     O19 4550   3.101   3.939   4.491  0.0605  0.3200  0.2439
  198DG     H20 4551   3.246   4.009   4.631 -0.9341  1.1993  0.1807
  198DG     H21 4552   3.090   4.070   4.650  2.1253  1.5790 -1.6339
  198DG     H22 4553   3.240   4.041   4.375  0.2464 -0.7812 -0.6130
  198DG     H23 4554   3.104   4.135   4.411  1.0053  0.4172  1.5433
  199DG      C1 4555   2.641   5.433   5.097  0.3204  0.5572  0.4021
  199DG      C2 4556   2.032   5.388   4.683  0.8783  0.2044 -0.3977
  199DG      H3 4557   2.720   5.411   5.025  0.2710 -3.7402  1.3636
  199DG      H4 4558   2.646   5.359   5.177  0.9121  1.6314  1.3939
  199DG      H5 4559   2.672   5.525   5.147  0.2652  2.6721 -3.0963
  199DG      H6 4560   2.105   5.464   4.653  0.4598  0.8451  0.1981
  199DG      H7 4561   2.054   5.307   4.614  1.4974 -1.0371  1.1896
  199DG      H8 4562   1.932   5.421   4.656  0.4400 -1.2198 -0.6303
  199DG      O9 4563   2.511   5.458   5.038  0.1159 -0.1278 -0.9786
  199DG     O10 4564   2.045   5.328   4.802  0.2333 -0.2653  0.1318
  199DG     C11 4565   2.449   5.345   4.986 -0.0633  0.5930  0.1075
  199DG     C12 4566   2.001   5.406   4.911 -0.2292 -0.1044 -0.6056
  199DG     H13 4567   2.431   5.274   5.066  0.4857 -2.0486 -1.9676
  199DG     H14 4568   2.519   5.296   4.920  0.9628  0.1442  1.4912
  199DG     H15 4569   1.962   5.345   4.993  0.9856  2.2223  1.8767
  199DG     H16 4570   1.912   5.460   4.880  1.3301  2.2898 -1.1496
  199DG     C17 4571   2.318   5.405   4.913 -0.0522  0.2489 -0.2724
  199DG     C18 4572   2.108   5.499   4.971  0.1291  0.7962  0.4310
  199DG     O19 4573   2.214   5.413   5.009 -0.0060 -0.6288 -0.1040
  199DG     H20 4574   2.285   5.330   4.841  4.0546 -1.4995 -0.6151
  199DG     H21 4575   2.338   5.498   4.862  0.4387 -0.1742 -0.8686
  199DG     H22 4576   2.144   5.574   4.901 -1.5827  1.0707 -0.2024
  199DG     H23 4577   2.059   5.552   5.053 -1.7059 -0.2527  0.0518
  200DG      C1 4578   4.485   1.727   0.865  0.1427  0.0642  0.1640
  200DG      C2 4579   4.768   2.006   1.490  0.0689  0.0360  0.2893
  200DG      H3 4580   4.437   1.630   0.876  0.8919 -0.5450 -1.6516
  200DG      H4 4581   4.546   1.737   0.776 -0.2159  1.1672  0.0250
  200DG      H5 4582   4.403   1.799   0.866  1.0180  1.3980 -3.9298
  200DG      H6 4583   4.732   1.906   1.517  0.3057 -0.0599  0.2581
  200DG      H7 4584   4.862   2.022   1.543 -1.0766  1.1269  2.0710
  200DG      H8 4585   4.694   2.082   1.514 -1.4840 -0.6346 -2.0100
  200DG      O9 4586   4.576   1.756   0.975  0.1632 -0.0503 -0.0113
  200DG     O10 4587   4.790   2.009   1.351  0.2405 -0.3456 -0.3562
  200DG     C11 4588   4.625   1.886   0.969 -0.0226 -0.7653  0.2893
  200DG     C12 4589   4.910   1.939   1.310 -0.3000  0.1384  0.2651
  200DG     H13 4590   4.562   1.973   0.950  0.0353 -0.5439  1.0962
  200DG     H14 4591   4.692   1.896   0.884 -0.8103 -0.4912 -0.3197
  200DG     H15 4592   4.920   1.832   1.323  2.3459  0.4031  1.1039
  200DG     H16 4593   4.995   1.986   1.360 -1.2486  1.1891  0.9761
  200DG     C17 4594   4.715   1.896   1.097 -0.4267  0.3136  0.2716
  200DG     C18 4595   4.924   1.986   1.164  0.2493  0.4185 -0.2935
  200DG     O19 4596   4.798   2.014   1.107  0.5044 -0.0791  0.6849
  200DG     H20 4597   4.788   1.815   1.091 -0.4511  0.2980  0.1767
  200DG     H21 4598   4.655   1.885   1.188 -0.5371 -0.4901  0.1160
  200DG     H22 4599   4.975   2.081   1.153  1.0238  0.1771  0.9352
  200DG     H23 4600   4.988   1.922   1.103 -0.2535  0.3096 -0.7102
  201DG      C1 4601   4.394   5.447   3.763 -0.4127  0.3214  0.3628
  201DG      C2 4602   3.762   5.530   3.567 -1.0345  0.2365  0.4813
  201DG      H3 4603   4.490   5.398   3.750 -1.0368 -0.6461 -0.8294
  201DG      H4 4604   4.347   5.409   3.854  0.1346 -0.4562  0.3198
  201DG      H5 4605   4.408   5.555   3.763  0.1444  0.2856 -1.8463
  201DG      H6 4606   3.788   5.611   3.635  1.9595  0.3386 -0.6088
  201DG      H7 4607   3.715   5.564   3.475 -1.4285  1.5055  1.1316
  201DG      H8 4608   3.689   5.472   3.622  1.0436 -2.1867  0.8999
  201DG      O9 4609   4.310   5.411   3.660  0.7377  0.5732 -0.0478
  201DG     O10 4610   3.873   5.449   3.543 -0.1739 -0.4352 -0.4945
  201DG     C11 4611   4.297   5.271   3.634 -0.1934 -0.3713  0.8242
  201DG     C12 4612   3.845   5.318   3.507 -0.3099 -0.0977 -0.6758
  201DG     H13 4613   4.262   5.212   3.719 -0.9709 -1.2611 -0.0894
  201DG     H14 4614   4.393   5.229   3.604 -1.2962 -1.8746 -0.7819
  201DG     H15 4615   3.772   5.317   3.426  0.2957  1.9753 -1.3080
  201DG     H16 4616   3.803   5.259   3.589  1.7153 -3.1794 -1.7099
  201DG     C17 4617   4.200   5.239   3.515  0.5886 -0.5981  0.7603
  201DG     C18 4618   3.975   5.257   3.447  0.6569 -0.2258 -0.3593
  201DG     O19 4619   4.074   5.292   3.544  0.3374  0.2823 -0.7273
  201DG     H20 4620   4.190   5.131   3.510 -0.0564 -0.5474  0.8286
  201DG     H21 4621   4.242   5.281   3.424 -1.5888  0.7085  0.2858
  201DG     H22 4622   3.964   5.149   3.437 -0.5363 -0.0916 -0.5506
  201DG     H23 4623   4.002   5.302   3.352  2.3292 -0.7656 -0.1885
  202DG      C1 4624   4.060   0.545   0.759 -0.3890  0.5256  0.2055
  202DG      C2 4625   4.191   1.001   1.266  0.4315  0.7985 -0.0580
  202DG      H3 4626   4.141   0.591   0.702 -1.0492 -0.2048 -1.3905
  202DG      H4 4627   3.992   0.483   0.700  0.3426  0.1641 -0.2703
  202DG      H5 4628   4.110   0.489   0.838  2.2951  3.0728  0.5097
  202DG      H6 4629   4.204   0.990   1.373 -0.3798 -0.1465 -0.0469
  202DG      H7 4630   4.294   1.002   1.229  1.0202 -1.1132  1.3423
  202DG      H8 4631   4.144   1.094   1.234 -0.7856  0.6686  1.3119
  202DG      O9 4632   3.981   0.646   0.810  0.6937 -0.1874  0.1980
  202DG     O10 4633   4.117   0.898   1.197  0.7852 -0.0699  0.1598
  202DG     C11 4634   3.871   0.600   0.889 -0.3448  0.3128 -0.4702
  202DG     C12 4635   3.979   0.882   1.232 -0.3005  0.4926  0.0425
  202DG     H13 4636   3.808   0.516   0.862  0.2275 -0.4718  0.5643
  202DG     H14 4637   3.811   0.690   0.903 -0.3887  0.2014  0.0874
  202DG     H15 4638   3.923   0.973   1.251 -0.5984  1.0818 -3.0035
  202DG     H16 4639   3.984   0.836   1.330  0.3975  1.6577  0.5718
  202DG     C17 4640   3.920   0.573   1.036 -0.1270  0.9437 -0.0941
  202DG     C18 4641   3.907   0.785   1.134 -0.5858  0.2932  0.7265
  202DG     O19 4642   3.993   0.674   1.095  0.1096  0.4685 -0.0805
  202DG     H20 4643   3.986   0.487   1.029 -0.9079  0.4826 -2.9025
  202DG     H21 4644   3.837   0.541   1.099 -0.0834 -2.7430 -1.6477
  202DG     H22 4645   3.824   0.747   1.194 -1.4932 -0.6285 -1.0370
  202DG     H23 4646   3.871   0.834   1.044  0.6389 -3.3161 -1.9408
  203DG      C1 4647   1.667   1.366   1.450  0.3087 -0.5779  0.3107
  203DG      C2 4648   1.802   0.739   1.432 -0.4193 -0.3380 -0.4741
  203DG      H3 4649   1.726   1.441   1.398 -1.9074  1.1914  0.2285
  203DG      H4 4650   1.730   1.312   1.521 -0.5092 -1.2611  0.5406
  203DG      H5 4651   1.584   1.410   1.505 -0.5794 -0.1495 -1.3102
  203DG      H6 4652   1.804   0.782   1.532  1.0956  2.5048 -1.6205
  203DG      H7 4653   1.727   0.660   1.428  0.8034 -1.4753 -2.7343
  203DG      H8 4654   1.903   0.704   1.410  0.2227 -0.0360  1.7921
  203DG      O9 4655   1.608   1.279   1.347  0.2325  0.5417 -0.6925
  203DG     O10 4656   1.775   0.854   1.346 -0.2409  0.3160 -0.4238
  203DG     C11 4657   1.680   1.266   1.229  0.3010  0.4159 -0.0625
  203DG     C12 4658   1.718   0.819   1.221 -0.3493 -0.4555  0.2481
  203DG     H13 4659   1.784   1.241   1.251  0.0920  0.3180  0.8816
  203DG     H14 4660   1.680   1.365   1.182 -0.8380 -0.6163 -2.3568
  203DG     H15 4661   1.621   0.777   1.243 -0.5053 -1.6811 -2.3449
  203DG     H16 4662   1.782   0.745   1.171  0.5284 -0.0767  0.7908
  203DG     C17 4663   1.618   1.168   1.135 -0.0318 -0.2299  0.4903
  203DG     C18 4664   1.714   0.945   1.128  0.4172 -0.5656  0.0216
  203DG     O19 4665   1.626   1.039   1.186 -0.0126 -0.4231 -0.4987
  203DG     H20 4666   1.662   1.160   1.035  0.2250 -0.3491  0.6117
  203DG     H21 4667   1.513   1.190   1.116 -1.0130 -2.6464  2.4638
  203DG     H22 4668   1.814   0.989   1.122 -0.3118  1.2815  0.7887
  203DG     H23 4669   1.675   0.911   1.032 -0.5856 -1.3048  0.6752
  204DG      C1 4670   2.016   4.085   0.258  0.4419 -0.1098  0.1550
  204DG      C2 4671   2.009   4.414   0.736  0.5201 -0.2031  0.1911
  204DG      H3 4672   2.121   4.109   0.272  0.6749 -0.4263 -1.0011
  204DG      H4 4673   1.958   4.171   0.226 -4.4666 -2.8281  0.6645
  204DG      H5 4674   2.012   4.015   0.175 -1.1791  2.7268 -2.3465
  204DG      H6 4675   1.920   4.428   0.797 -0.0964  2.0383 -1.1252
  204DG      H7 4676   2.100   4.457   0.779  0.9415 -1.9029  1.0943
  204DG      H8 4677   1.985   4.475   0.649 -0.7366  1.1970  1.4769
  204DG      O9 4678   1.966   4.035   0.384  0.1173  0.5310  0.3646
  204DG     O10 4679   2.026   4.284   0.695 -0.4777  0.7156  0.5017
  204DG     C11 4680   2.042   3.928   0.445 -0.4022 -0.2142  0.4731
  204DG     C12 4681   2.054   4.190   0.798 -0.0724 -0.3727 -0.0865
  204DG     H13 4682   2.149   3.951   0.451 -0.4082  0.8033 -2.1552
  204DG     H14 4683   2.032   3.846   0.375  2.6166 -0.1062 -0.2342
  204DG     H15 4684   1.967   4.193   0.864  0.7876  3.4885  1.1346
  204DG     H16 4685   2.146   4.217   0.851  0.9278 -1.2651 -1.3173
  204DG     C17 4686   1.989   3.894   0.581  0.2737  0.5077 -0.1760
  204DG     C18 4687   2.070   4.045   0.747  0.0322  0.2627 -0.0928
  204DG     O19 4688   1.976   4.018   0.640  0.3259 -0.1886 -0.8253
  204DG     H20 4689   2.053   3.827   0.638 -2.7692 -1.0573  1.6414
  204DG     H21 4690   1.894   3.842   0.576  0.9482 -0.7706 -0.0304
  204DG     H22 4691   2.169   4.033   0.701 -0.8258 -0.7356 -1.7919
  204DG     H23 4692   2.054   3.964   0.818 -1.8589 -1.1761 -2.0115
  205DG      C1 4693   4.070   0.415   1.328  0.4654  0.2886 -0.9609
  205DG      C2 4694   4.297   0.878   0.917  0.0486  0.2121  0.4174
  205DG      H3 4695   4.062   0.336   1.403  0.6117  2.1191  1.0941
  205DG      H4 4696   3.993   0.401   1.253 -0.6363 -0.9944  0.3609
  205DG      H5 4697   4.041   0.512   1.370  1.5200  0.6146 -0.9368
  205DG      H6 4698   4.207   0.844   0.867  0.9076  0.7862 -1.6370
  205DG      H7 4699   4.260   0.954   0.986  0.3541  1.1354 -0.4137
  205DG      H8 4700   4.357   0.929   0.841  0.2663  1.3665  1.3260
  205DG      O9 4701   4.201   0.438   1.270 -0.4554 -0.2084 -0.7661
  205DG     O10 4702   4.365   0.772   0.980 -0.5542 -0.5150 -0.0497
  205DG     C11 4703   4.263   0.326   1.197 -0.5067  0.0106  0.4015
  205DG     C12 4704   4.395   0.673   0.886 -0.0775 -0.1706  0.4996
  205DG     H13 4705   4.183   0.277   1.141 -0.4698  0.0980  0.2724
  205DG     H14 4706   4.298   0.250   1.267  0.3364 -0.9454 -1.0253
  205DG     H15 4707   4.474   0.701   0.816  1.2852 -2.9440  0.7814
  205DG     H16 4708   4.314   0.649   0.817 -0.0122 -1.5795  0.8830
  205DG     C17 4709   4.373   0.372   1.106  0.7298  0.2339 -0.3717
  205DG     C18 4710   4.443   0.543   0.951  1.2499  0.3202  0.4115
  205DG     O19 4711   4.344   0.495   1.037  0.0659  0.0401 -0.4012
  205DG     H20 4712   4.398   0.292   1.036  2.4492 -0.1842  0.6499
  205DG     H21 4713   4.463   0.384   1.166  0.3838 -1.7247  0.6495
  205DG     H22 4714   4.467   0.471   0.873 -0.4109  0.1476  0.0284
  205DG     H23 4715   4.527   0.567   1.016  0.2211 -0.8953  2.2650
  206DG      C1 4716   1.084   4.127   2.369  0.2929  0.0333  0.6681
  206DG      C2 4717   0.932   3.720   2.809 -0.1421  0.5790 -0.0810
  206DG      H3 4718   1.135   4.175   2.285 -0.5262  2.1723  1.3462
  206DG      H4 4719   1.044   4.213   2.422 -0.9370  0.3556 -0.7137
  206DG      H5 4720   1.000   4.072   2.326  0.4762  0.9381 -0.9409
  206DG      H6 4721   0.852   3.646   2.817  0.9714 -0.5523  1.0810
  206DG      H7 4722   1.008   3.692   2.882 -1.3475 -3.0264  0.0198
  206DG      H8 4723   0.881   3.809   2.845 -1.1469 -0.3480  0.8926
  206DG      O9 4724   1.165   4.057   2.459 -0.9320 -0.1676 -0.1256
  206DG     O10 4725   0.994   3.756   2.683 -0.1723 -0.2499 -0.3339
  206DG     C11 4726   1.244   3.954   2.388  0.3975  0.1638 -0.0989
  206DG     C12 4727   1.057   3.647   2.629 -0.0897 -0.0574 -0.1445
  206DG     H13 4728   1.315   3.997   2.317 -1.3316  0.1200 -1.9266
  206DG     H14 4729   1.183   3.886   2.329  0.9236 -0.3524 -0.0524
  206DG     H15 4730   0.978   3.588   2.583  0.5883 -0.5150 -0.7471
  206DG     H16 4731   1.105   3.582   2.702 -0.2450  0.0938  0.0900
  206DG     C17 4732   1.322   3.864   2.485 -0.2193 -0.4856 -0.1357
  206DG     C18 4733   1.155   3.705   2.521  0.7597  0.1359  0.3054
  206DG     O19 4734   1.226   3.806   2.574  0.4343 -0.2325  0.7634
  206DG     H20 4735   1.383   3.939   2.536  1.0442  0.5569 -2.9454
  206DG     H21 4736   1.394   3.795   2.442  0.8475  0.9568 -0.7761
  206DG     H22 4737   1.214   3.618   2.493 -2.0287 -1.6092 -0.5776
  206DG     H23 4738   1.095   3.738   2.436  0.2455 -0.6420  0.3581
  207DG      C1 4739   3.991   0.799   2.141 -0.5208 -0.1962 -0.3560
  207DG      C2 4740   4.606   1.129   2.545  0.6066  0.1586  0.7576
  207DG      H3 4741   3.918   0.728   2.101  0.1312 -0.1145 -1.7507
  207DG      H4 4742   3.990   0.899   2.099 -1.0988  0.1881  0.5215
  207DG      H5 4743   3.954   0.809   2.244  1.9086 -3.0113  0.9362
  207DG      H6 4744   4.575   1.233   2.551  1.5453  0.3797  4.1311
  207DG      H7 4745   4.657   1.103   2.638  0.4252 -1.9213  0.3192
  207DG      H8 4746   4.676   1.109   2.464 -1.0166  0.2984 -0.7334
  207DG      O9 4747   4.126   0.736   2.130  0.1015 -0.1119 -0.1092
  207DG     O10 4748   4.502   1.041   2.513 -0.0861 -0.3702 -0.1125
  207DG     C11 4749   4.232   0.810   2.184  0.5274  0.0415  0.5572
  207DG     C12 4750   4.524   0.905   2.547 -0.0514 -0.2493 -0.5406
  207DG     H13 4751   4.205   0.916   2.180  1.5139  0.3608  1.6645
  207DG     H14 4752   4.319   0.807   2.119  0.0448 -0.6486 -0.0581
  207DG     H15 4753   4.560   0.882   2.647 -0.2350  0.4431 -0.3154
  207DG     H16 4754   4.607   0.878   2.481  1.7406  0.4202  1.3537
  207DG     C17 4755   4.252   0.766   2.332 -0.0193  0.0138  0.1770
  207DG     C18 4756   4.401   0.822   2.507 -0.3179 -0.2327 -0.1315
  207DG     O19 4757   4.356   0.843   2.373 -0.4663 -0.5337 -0.7199
  207DG     H20 4758   4.286   0.664   2.347 -0.1616 -0.1232 -0.4124
  207DG     H21 4759   4.168   0.786   2.399  0.2863  0.4652  0.4367
  207DG     H22 4760   4.421   0.716   2.523 -2.3992 -0.5696  0.5097
  207DG     H23 4761   4.324   0.839   2.582  0.6738  0.0048  0.8566
  208DG      C1 4762   3.308   0.806   3.296  0.2095 -0.2391  0.8801
  208DG      C2 4763   3.386   1.271   3.855 -1.0379 -0.5198 -0.2293
  208DG      H3 4764   3.250   0.894   3.269  0.0439 -0.4462  0.5509
  208DG      H4 4765   3.232   0.729   3.310 -0.2000 -0.0973 -0.4514
  208DG      H5 4766   3.360   0.770   3.207  2.7609  1.1269  1.7257
  208DG      H6 4767   3.401   1.284   3.962 -2.3666 -0.9527  0.0216
  208DG      H7 4768   3.386   1.369   3.807  1.8639 -0.5757 -0.5154
  208DG      H8 4769   3.293   1.216   3.838 -0.5001 -2.1493  1.8418
  208DG      O9 4770   3.387   0.807   3.414  0.2003  0.1653  0.0386
  208DG     O10 4771   3.499   1.205   3.797 -0.1229 -0.3526 -0.5550
  208DG     C11 4772   3.512   0.873   3.390 -0.2927  0.2636 -0.0137
  208DG     C12 4773   3.498   1.065   3.833  0.3043 -0.2300  0.4033
  208DG     H13 4774   3.475   0.967   3.349  1.1278  0.9016  0.1027
  208DG     H14 4775   3.569   0.815   3.318 -1.5375  0.2979 -1.0805
  208DG     H15 4776   3.399   1.026   3.806  0.6250 -0.5286 -0.3696
  208DG     H16 4777   3.510   1.042   3.938  0.0995  0.3155  0.5480
  208DG     C17 4778   3.593   0.914   3.513  0.2475 -0.1448  0.0574
  208DG     C18 4779   3.585   0.979   3.741  0.4229  0.7516 -0.4614
  208DG     O19 4780   3.524   0.983   3.610  0.1880  0.8224 -0.0690
  208DG     H20 4781   3.679   0.973   3.482 -0.0473 -0.0550 -0.6079
  208DG     H21 4782   3.647   0.825   3.547 -0.7496 -0.7761  0.0173
  208DG     H22 4783   3.692   0.997   3.732  0.5291 -0.0816 -1.0249
  208DG     H23 4784   3.580   0.874   3.771  1.0144  0.6506 -0.6974
  209DG      C1 4785   4.224   3.505   0.571 -0.2300  0.2583  0.4972
  209DG      C2 4786   4.616   3.184   1.000  0.0263  0.7939  0.4946
  209DG      H3 4787   4.274   3.579   0.634  1.2114  0.5353 -0.8851
  209DG      H4 4788   4.117   3.518   0.582 -0.7179 -2.5967 -0.0861
  209DG      H5 4789   4.254   3.538   0.471  0.5113 -0.5045  0.4573
  209DG      H6 4790   4.711   3.133   0.985 -0.3168  0.6795 -1.5854
  209DG      H7 4791   4.635   3.288   1.029  0.6429  0.8562 -0.1262
  209DG      H8 4792   4.566   3.141   1.087 -0.2126  1.1309  0.5288
  209DG      O9 4793   4.257   3.375   0.607 -0.7422  0.0253 -0.2466
  209DG     O10 4794   4.537   3.174   0.882 -0.5355  0.4922 -0.1917
  209DG     C11 4795   4.301   3.297   0.500  0.4780 -0.0783  0.4918
  209DG     C12 4796   4.479   3.048   0.865  0.8911 -0.0193 -0.4420
  209DG     H13 4797   4.393   3.342   0.462 -0.9245  0.4832 -2.5454
  209DG     H14 4798   4.231   3.288   0.417  1.1249  1.5806 -0.2813
  209DG     H15 4799   4.386   3.049   0.922  1.4168 -0.7368  0.4586
  209DG     H16 4800   4.535   2.968   0.913  2.8744  2.8495  2.5231
  209DG     C17 4801   4.331   3.153   0.552  0.3336 -0.4309 -0.3097
  209DG     C18 4802   4.437   3.032   0.727 -0.1039 -0.2790  0.1846
  209DG     O19 4803   4.367   3.152   0.692  0.1269 -0.0472  0.6009
  209DG     H20 4804   4.402   3.113   0.480  1.5122 -1.1123  1.1706
  209DG     H21 4805   4.239   3.096   0.546 -0.6530  0.8830  1.1794
  209DG     H22 4806   4.524   3.013   0.665 -0.0772 -0.1720  0.1887
  209DG     H23 4807   4.379   2.941   0.717 -0.6141  0.0461  0.1566
  210DG      C1 4808   3.400   3.233   0.086 -0.5903 -0.4083 -0.0072
  210DG      C2 4809   3.470   3.581   0.612  0.5985 -0.4555 -0.4345
  210DG      H3 4810   3.379   3.338   0.063  0.3356  0.1710  1.6043
  210DG      H4 4811   3.299   3.202   0.110 -1.1918  0.9765 -0.6033
  210DG      H5 4812   3.443   3.184  -0.001  0.7520  0.6068  0.0393
  210DG      H6 4813   3.414   3.652   0.552  0.0435  0.2194  0.8604
  210DG      H7 4814   3.433   3.596   0.713  2.6341  0.1013  0.2766
  210DG      H8 4815   3.575   3.613   0.607  1.2209 -2.4297 -0.9954
  210DG      O9 4816   3.495   3.225   0.194  0.2434 -0.3454 -1.0880
  210DG     O10 4817   3.464   3.445   0.570  0.4876  0.3023  0.0375
  210DG     C11 4818   3.512   3.095   0.257 -0.0834  1.1563 -0.9490
  210DG     C12 4819   3.331   3.385   0.598  0.5352  0.2004  0.1457
  210DG     H13 4820   3.617   3.082   0.282 -0.6204  1.3092  1.7134
  210DG     H14 4821   3.478   3.014   0.193  0.6835 -0.1486  0.2609
  210DG     H15 4822   3.256   3.427   0.531 -0.7150  0.7868  1.8405
  210DG     H16 4823   3.300   3.405   0.700  1.0482  0.2746  0.2922
  210DG     C17 4824   3.422   3.095   0.386 -0.2998 -0.6813 -0.7134
  210DG     C18 4825   3.346   3.239   0.564 -0.6296 -0.3608 -0.2682
  210DG     O19 4826   3.418   3.226   0.444 -0.8560  0.5908  0.0133
  210DG     H20 4827   3.475   3.030   0.456  1.1668 -0.2364 -1.3869
  210DG     H21 4828   3.319   3.061   0.374 -1.6934  3.1080 -0.7148
  210DG     H22 4829   3.393   3.186   0.647 -0.1490 -1.2729 -1.0985
  210DG     H23 4830   3.249   3.190   0.554 -1.0031 -0.3419  2.4028
  211DG      C1 4831   0.124   2.730   4.467 -0.0005  0.8462  0.1403
  211DG      C2 4832   0.014   2.330   4.866 -0.3765 -0.0352 -0.5826
  211DG      H3 4833   0.037   2.785   4.503 -1.4767 -0.1227 -1.8214
  211DG      H4 4834   0.085   2.699   4.370  2.2669  0.5318 -0.7404
  211DG      H5 4835   0.204   2.798   4.436  1.5828 -1.2027 -0.5186
  211DG      H6 4836  -0.022   2.227   4.860  2.7415 -1.2676 -0.2528
  211DG      H7 4837  -0.062   2.394   4.911  0.7801  0.2825  0.9910
  211DG      H8 4838   0.012   2.363   4.762 -0.5350  1.1642 -0.2059
  211DG      O9 4839   0.170   2.625   4.552 -0.3018 -0.2839 -0.7681
  211DG     O10 4840   0.162   2.337   4.911  0.4792  0.2321 -0.3159
  211DG     C11 4841   0.296   2.574   4.507 -0.0580 -0.9319  0.6753
  211DG     C12 4842   0.254   2.248   4.858 -0.1558  0.2495  0.9819
  211DG     H13 4843   0.376   2.628   4.557  0.3054  0.6858 -1.4828
  211DG     H14 4844   0.287   2.590   4.399 -0.5750  0.3998  0.9004
  211DG     H15 4845   0.214   2.150   4.885 -0.0606  0.3005  1.3136
  211DG     H16 4846   0.346   2.269   4.911  0.0428 -1.0830  1.2127
  211DG     C17 4847   0.307   2.422   4.536  0.0565 -0.2173 -0.3885
  211DG     C18 4848   0.273   2.271   4.706  0.3834  0.0346  0.0030
  211DG     O19 4849   0.282   2.404   4.674  0.2501  0.3623 -0.4365
  211DG     H20 4850   0.404   2.380   4.510 -0.3294 -0.5976 -1.2364
  211DG     H21 4851   0.245   2.364   4.468 -0.9486  3.1183 -2.6128
  211DG     H22 4852   0.360   2.217   4.670  1.1458  1.7799 -0.8881
  211DG     H23 4853   0.186   2.226   4.658 -0.5733  0.9732  0.8059
  212DG      C1 4854   5.327   0.264   3.155 -0.3430  0.6696 -0.6862
  212DG      C2 4855   5.061   0.556   3.723 -0.8564 -0.1510  0.3124
  212DG      H3 4856   5.388   0.207   3.226  0.1697  2.8717  0.7318
  212DG      H4 4857   5.389   0.347   3.120  0.5387 -0.1401 -1.1009
  212DG      H5 4858   5.301   0.205   3.067 -0.7579 -0.3778  0.1077
  212DG      H6 4859   5.073   0.662   3.704  0.0946 -0.2923  0.0886
  212DG      H7 4860   4.982   0.540   3.797  0.3839 -0.3718  1.6414
  212DG      H8 4861   5.157   0.532   3.769 -0.9928  2.0959  1.8876
  212DG      O9 4862   5.210   0.310   3.218  0.0701 -0.4622  0.2092
  212DG     O10 4863   5.039   0.489   3.594 -0.5925  0.3898  0.4512
  212DG     C11 4864   5.127   0.389   3.139 -0.2101 -0.4776 -0.1574
  212DG     C12 4865   4.921   0.541   3.534 -0.4073 -0.3604 -0.1806
  212DG     H13 4866   5.114   0.336   3.045 -1.4263  2.8152 -1.9986
  212DG     H14 4867   5.169   0.489   3.123  1.6185 -1.0756  0.6202
  212DG     H15 4868   4.928   0.648   3.515 -1.4464 -0.5812 -1.9767
  212DG     H16 4869   4.846   0.533   3.613  0.8372  2.3091  1.4223
  212DG     C17 4870   4.996   0.401   3.205 -0.1492  0.4606  0.2164
  212DG     C18 4871   4.889   0.458   3.411 -0.1314 -0.6026  0.9783
  212DG     O19 4872   5.011   0.440   3.339  0.1536  0.4439 -0.3187
  212DG     H20 4873   4.956   0.300   3.204 -3.6538  1.6758  1.0006
  212DG     H21 4874   4.926   0.468   3.155 -2.8126 -2.9919 -1.0904
  212DG     H22 4875   4.839   0.363   3.430 -1.4855 -0.3679 -1.0816
  212DG     H23 4876   4.819   0.510   3.346  0.3301 -0.4009  0.6374
  213DG      C1 4877   0.852   1.097   0.588 -0.6723  0.3813  0.4085
  213DG      C2 4878   1.086   0.866   0.022 -0.0133 -0.8094  0.6553
  213DG      H3 4879   0.810   1.155   0.671 -0.3981  0.7983  0.2589
  213DG      H4 4880   0.946   1.056   0.626  0.1473  0.8422 -1.0486
  213DG      H5 4881   0.796   1.006   0.570  0.8002 -0.2831 -1.0569
  213DG      H6 4882   1.189   0.861   0.056  0.4715  2.0279 -0.1704
  213DG      H7 4883   1.033   0.792   0.083  1.4901 -2.2042  0.3473
  213DG      H8 4884   1.066   0.832  -0.079 -1.9985  2.1540 -0.0556
  213DG      O9 4885   0.866   1.166   0.468  0.6201 -0.2651 -0.6817
  213DG     O10 4886   1.025   0.993   0.052  0.5519 -0.2260  0.2384
  213DG     C11 4887   0.745   1.201   0.399  0.1394 -0.3600  0.0094
  213DG     C12 4888   0.891   0.984   0.017  0.4990  0.2549  0.0708
  213DG     H13 4889   0.691   1.287   0.440 -0.7492 -0.5714 -0.6731
  213DG     H14 4890   0.678   1.115   0.399 -2.0410  1.2589  0.8286
  213DG     H15 4891   0.822   0.917   0.067 -0.9895  0.4249 -1.6492
  213DG     H16 4892   0.881   0.955  -0.088 -0.0068 -1.0119  0.4526
  213DG     C17 4893   0.780   1.242   0.260 -1.1949 -0.1678  0.7672
  213DG     C18 4894   0.854   1.132   0.050  0.4848 -0.2346  0.9179
  213DG     O19 4895   0.844   1.136   0.190  0.1577  0.3554 -0.4125
  213DG     H20 4896   0.844   1.330   0.267  2.0121 -2.3475  0.7156
  213DG     H21 4897   0.684   1.268   0.215 -0.4600 -0.2767 -0.9304
  213DG     H22 4898   0.923   1.206   0.010 -0.4292  1.4119  2.2612
  213DG     H23 4899   0.749   1.144   0.025  1.2378  3.8905 -1.0096
  214DG      C1 4900   4.881   1.485   0.096 -0.5395 -0.2783 -0.7057
  214DG      C2 4901   5.021   0.881  -0.047  0.1832  0.3930  0.1382
  214DG      H3 4902   4.830   1.477   0.001 -1.6192  3.8572 -0.6364
  214DG      H4 4903   4.970   1.548   0.089 -0.3484 -0.5113 -0.4139
  214DG      H5 4904   4.820   1.537   0.170 -0.6955  0.4712 -1.3541
  214DG      H6 4905   5.042   0.775  -0.040 -0.1529  0.3418  0.4174
  214DG      H7 4906   4.960   0.897  -0.137  0.2484 -0.1547 -0.0038
  214DG      H8 4907   5.116   0.931  -0.062 -0.2640  2.0700  2.3257
  214DG      O9 4908   4.905   1.350   0.144 -0.0211  0.1018  0.1656
  214DG     O10 4909   4.944   0.931   0.059  0.7131 -0.0215 -0.6992
  214DG     C11 4910   4.961   1.327   0.272  0.1232  0.1583  0.3557
  214DG     C12 4911   4.992   0.890   0.183  0.2190  0.2774 -0.9157
  214DG     H13 4912   4.886   1.342   0.350 -2.1764 -1.5693 -1.3910
  214DG     H14 4913   5.044   1.394   0.293  0.1422  1.0148 -2.1420
  214DG     H15 4914   5.101   0.899   0.182  0.4122 -1.7087 -1.8329
  214DG     H16 4915   4.966   0.786   0.201  1.1190  0.5143  2.6352
  214DG     C17 4916   4.996   1.181   0.278 -0.4029  0.5029  0.1342
  214DG     C18 4917   4.911   0.963   0.293 -0.0012 -0.3323  0.0141
  214DG     O19 4918   4.888   1.095   0.257 -0.1632 -0.2775 -0.1208
  214DG     H20 4919   5.030   1.168   0.380 -1.2983  2.7865  0.7991
  214DG     H21 4920   5.079   1.169   0.209 -0.3436 -0.4263  0.3637
  214DG     H22 4921   4.815   0.913   0.299 -0.5199  0.6356  0.0509
  214DG     H23 4922   4.952   0.957   0.393 -0.6393 -0.9604  0.2462
  215DG      C1 4923   1.306   1.164   1.394 -0.6028 -0.1564 -0.3518
  215DG      C2 4924   1.993   1.110   1.515 -0.4768  0.4194  0.8150
  215DG      H3 4925   1.340   1.208   1.301 -1.0697  0.5096 -0.2157
  215DG      H4 4926   1.242   1.241   1.439 -0.0249  0.3107 -0.3237
  215DG      H5 4927   1.243   1.079   1.368  0.1634 -0.6905 -0.4681
  215DG      H6 4928   2.069   1.049   1.564 -2.1521 -2.2805  0.2794
  215DG      H7 4929   1.994   1.109   1.406  1.7141  1.8463  0.7594
  215DG      H8 4930   2.008   1.214   1.542 -1.4528  1.1218 -1.1037
  215DG      O9 4931   1.417   1.123   1.475 -0.3855  0.1340 -0.3744
  215DG     O10 4932   1.867   1.060   1.545 -0.0939  0.3376 -0.2396
  215DG     C11 4933   1.367   1.081   1.610 -0.3029  0.4836  0.3441
  215DG     C12 4934   1.846   1.040   1.679 -0.1113  1.0008 -0.3705
  215DG     H13 4935   1.280   1.017   1.594  0.6012 -0.6062 -0.3651
  215DG     H14 4936   1.327   1.172   1.655  1.8060  1.5339  0.2633
  215DG     H15 4937   1.853   1.136   1.730 -1.0238  0.8765 -0.0003
  215DG     H16 4938   1.918   0.978   1.732 -0.2326  1.7908  0.7438
  215DG     C17 4939   1.470   1.014   1.698 -0.4540  0.9775 -0.0172
  215DG     C18 4940   1.704   0.985   1.721  0.2468  0.2893 -0.2479
  215DG     O19 4941   1.602   1.069   1.680  0.6446  0.0978 -0.6034
  215DG     H20 4942   1.473   0.908   1.671 -0.6538  0.2776  2.4785
  215DG     H21 4943   1.454   1.006   1.806 -0.7453 -1.4851 -0.1682
  215DG     H22 4944   1.684   0.883   1.689 -0.4242  0.7831 -1.4518
  215DG     H23 4945   1.703   0.985   1.830  1.8668 -0.7326 -0.2011
  216DG      C1 4946   2.871   4.571   5.141  0.0608 -0.4246  0.1428
  216DG      C2 4947   2.649   3.983   5.251  0.1125 -0.1001  0.0127
  216DG      H3 4948   2.922   4.625   5.221  0.9461 -1.8250  0.5498
  216DG      H4 4949   2.809   4.640   5.082  2.0112  0.4314 -0.9914
  216DG      H5 4950   2.948   4.529   5.078  1.6950 -1.9163  2.9539
  216DG      H6 4951   2.611   4.034   5.162  0.6447  0.5204  0.1390
  216DG      H7 4952   2.724   3.912   5.215 -0.4470 -1.3375  1.1985
  216DG      H8 4953   2.577   3.916   5.298  1.0960 -2.6984 -1.9017
  216DG      O9 4954   2.791   4.470   5.198  0.0538 -0.2280 -0.5058
  216DG     O10 4955   2.703   4.081   5.333 -0.0627  1.3040 -0.1020
  216DG     C11 4956   2.696   4.520   5.289 -0.3423 -0.0143 -0.2222
  216DG     C12 4957   2.619   4.103   5.450 -0.6466 -0.0201 -0.0646
  216DG     H13 4958   2.637   4.593   5.234 -1.2541  0.4052  1.2367
  216DG     H14 4959   2.741   4.572   5.374 -0.5888 -2.9539  1.8478
  216DG     H15 4960   2.632   4.022   5.522  1.3737  0.1476 -0.1759
  216DG     H16 4961   2.519   4.110   5.407  0.6347 -1.0552 -3.5056
  216DG     C17 4962   2.611   4.407   5.349 -1.2170 -0.3631 -0.4668
  216DG     C18 4963   2.655   4.235   5.519 -0.0882  0.5158 -0.4524
  216DG     O19 4964   2.703   4.325   5.418 -0.2808 -0.0426 -0.2106
  216DG     H20 4965   2.556   4.355   5.271 -1.5130  0.7366 -1.0076
  216DG     H21 4966   2.539   4.451   5.418  0.1718  2.7885 -0.8160
  216DG     H22 4967   2.576   4.266   5.586 -2.1429  0.3521 -2.6850
  216DG     H23 4968   2.740   4.206   5.582 -0.2507  0.8300 -0.0876
  217DG      C1 4969   1.136   4.908   1.778 -0.0471  0.3675  0.2127
  217DG      C2 4970   1.748   5.272   1.704 -0.1582 -0.7837  0.4467
  217DG      H3 4971   1.172   4.920   1.880  0.7062  2.2046 -0.2175
  217DG      H4 4972   1.145   4.801   1.760 -1.1393  0.3199 -0.0955
  217DG      H5 4973   1.035   4.948   1.780 -0.0801  0.4468 -1.5729
  217DG      H6 4974   1.813   5.328   1.637 -1.5022 -1.2264 -1.2886
  217DG      H7 4975   1.722   5.344   1.781  0.3634  0.2226 -0.3001
  217DG      H8 4976   1.809   5.191   1.746  2.1664  0.7409  0.1807
  217DG      O9 4977   1.220   4.987   1.693  0.0584 -0.0127  0.0057
  217DG     O10 4978   1.627   5.230   1.649  0.4557 -0.1423  0.0337
  217DG     C11 4979   1.228   4.945   1.556  0.2785 -0.7624 -0.4835
  217DG     C12 4980   1.652   5.156   1.524 -0.0765  0.0818  0.1608
  217DG     H13 4981   1.126   4.945   1.516  0.4655  0.6937 -1.0400
  217DG     H14 4982   1.270   4.846   1.546  0.9210 -0.5836  0.3433
  217DG     H15 4983   1.697   5.059   1.549  0.5421  0.1931 -0.5215
  217DG     H16 4984   1.721   5.206   1.458 -0.5025 -0.0370 -0.3814
  217DG     C17 4985   1.300   5.056   1.482  0.6579  0.5136  0.6687
  217DG     C18 4986   1.519   5.138   1.443 -0.6808  0.2230 -0.0725
  217DG     O19 4987   1.425   5.097   1.534  0.4851  0.6347 -0.1420
  217DG     H20 4988   1.241   5.147   1.486 -1.6283 -0.7619 -1.5798
  217DG     H21 4989   1.308   5.040   1.375 -0.0552 -0.9371  0.8024
  217DG     H22 4990   1.502   5.242   1.412  2.4340  1.5666  2.1503
  217DG     H23 4991   1.540   5.062   1.369 -0.6407 -1.6073  1.7382
  218DG      C1 4992   0.585   2.946   0.605  0.2418  0.2062  0.1000
  218DG      C2 4993   0.876   3.187   0.066  0.7001  0.1331  0.1524
  218DG      H3 4994   0.509   2.917   0.678  0.2635 -0.2235 -0.0454
  218DG      H4 4995   0.672   2.971   0.666  1.0911 -2.2458  0.0186
  218DG      H5 4996   0.620   2.861   0.547  1.6438  0.4133  0.6032
  218DG      H6 4997   0.871   3.085   0.028 -0.7611  0.9991 -2.1527
  218DG      H7 4998   0.909   3.257  -0.011 -2.9575  0.8253 -0.9461
  218DG      H8 4999   0.949   3.176   0.147  1.8414 -0.4024 -0.9063
  218DG      O9 5000   0.546   3.049   0.507  0.1159  0.0457 -0.1285
  218DG     O10 5001   0.741   3.236   0.109  0.8671  0.3384 -0.9198
  218DG     C11 5002   0.517   3.176   0.567  0.0910  0.2496 -0.1377
  218DG     C12 5003   0.743   3.363   0.165  0.2556  0.0138 -0.7704
  218DG     H13 5004   0.612   3.196   0.617 -0.1352  0.8669  0.0483
  218DG     H14 5005   0.428   3.164   0.629  0.0289 -0.1412 -0.2997
  218DG     H15 5006   0.755   3.447   0.097  3.0080  1.2626  1.0622
  218DG     H16 5007   0.834   3.372   0.224  1.3779 -1.0030 -2.2691
  218DG     C17 5008   0.508   3.283   0.462 -0.5816 -0.2598  0.7023
  218DG     C18 5009   0.625   3.378   0.263 -0.3182 -1.0728  0.0553
  218DG     O19 5010   0.610   3.275   0.359 -0.2301  0.4623  0.2789
  218DG     H20 5011   0.507   3.385   0.500 -0.4249 -0.1911  0.5233
  218DG     H21 5012   0.413   3.260   0.412  0.8357  1.2386 -3.0138
  218DG     H22 5013   0.653   3.469   0.316  1.5292 -3.0492  2.7169
  218DG     H23 5014   0.531   3.401   0.213 -0.2013  1.7023  0.9414
  219DG      C1 5015   4.098   1.569   5.304 -0.2876  0.2340  0.1348
  219DG      C2 5016   4.437   1.165   4.932 -0.5761 -0.2912  0.5076
  219DG      H3 5017   4.155   1.644   5.250  2.0164 -2.6042 -1.6630
  219DG      H4 5018   4.180   1.526   5.361  0.5711  1.6368  0.0122
  219DG      H5 5019   4.021   1.611   5.369 -0.1529 -0.7143  0.9248
  219DG      H6 5020   4.509   1.208   5.002 -1.4211  1.0087  0.6175
  219DG      H7 5021   4.468   1.068   4.893 -1.3298 -0.1543 -0.4717
  219DG      H8 5022   4.458   1.235   4.851 -2.0906 -2.0050 -1.5070
  219DG      O9 5023   4.045   1.471   5.214  0.3333  0.1002  0.2290
  219DG     O10 5024   4.299   1.157   4.966  0.4457 -0.6107  0.4021
  219DG     C11 5025   3.980   1.366   5.282 -0.1331  0.0589  0.3749
  219DG     C12 5026   4.274   1.064   5.072 -0.1504  0.1624 -0.7703
  219DG     H13 5027   3.878   1.386   5.316  0.9871  1.7999  3.0913
  219DG     H14 5028   4.021   1.345   5.381  2.0979 -0.6251 -0.6303
  219DG     H15 5029   4.340   1.078   5.157 -1.7262 -2.1457  0.9582
  219DG     H16 5030   4.280   0.963   5.032  0.6280  0.5066 -1.5498
  219DG     C17 5031   3.984   1.228   5.217 -0.3650  0.6698 -0.4375
  219DG     C18 5032   4.136   1.074   5.120  0.0428  0.5709 -0.3843
  219DG     O19 5033   4.116   1.205   5.168  0.7731 -0.2529 -0.4354
  219DG     H20 5034   3.914   1.202   5.138 -0.5978  1.6153 -0.5517
  219DG     H21 5035   3.966   1.148   5.289 -1.0896  2.3250  1.3056
  219DG     H22 5036   4.072   1.047   5.036 -1.7177  1.5463  0.5960
  219DG     H23 5037   4.129   1.004   5.204 -1.3968  1.1709  0.0148
  220DG      C1 5038   0.202   3.698   4.993 -0.2928  0.4962 -0.6671
  220DG      C2 5039   0.667   3.762   5.741 -0.4079 -0.1220  0.1181
  220DG      H3 5040   0.133   3.778   5.020 -0.5664 -0.4286  1.5539
  220DG      H4 5041   0.146   3.616   4.950 -1.4689  1.5752 -1.2751
  220DG      H5 5042   0.284   3.739   4.932  1.6073 -0.5857  1.0400
  220DG      H6 5043   0.642   3.859   5.783 -2.5906 -0.3363 -0.5465
  220DG      H7 5044   0.695   3.686   5.815  2.9445 -0.2080 -1.0852
  220DG      H8 5045   0.761   3.787   5.694 -0.0826  0.2804  0.9639
  220DG      O9 5046   0.248   3.649   5.110  0.0032  0.0515 -0.0467
  220DG     O10 5047   0.575   3.715   5.645 -0.1411  0.3910 -0.1740
  220DG     C11 5048   0.305   3.738   5.200 -0.4860 -0.5384  1.0060
  220DG     C12 5049   0.439   3.735   5.678 -0.4195  0.6894  0.0598
  220DG     H13 5050   0.252   3.833   5.196 -1.9864 -1.3818 -0.1401
  220DG     H14 5051   0.409   3.753   5.171 -0.9690  2.0466  0.3541
  220DG     H15 5052   0.418   3.839   5.703 -0.5148  1.0544 -1.4452
  220DG     H16 5053   0.416   3.675   5.766 -2.4430  0.6121 -0.4820
  220DG     C17 5054   0.294   3.675   5.337  0.7061  0.3908 -0.1738
  220DG     C18 5055   0.352   3.677   5.564 -0.1160  0.6030 -0.2592
  220DG     O19 5056   0.355   3.747   5.441 -0.2356  0.0650  0.0614
  220DG     H20 5057   0.328   3.572   5.339 -1.3801 -0.3756  2.8250
  220DG     H21 5058   0.187   3.676   5.357  0.6812  1.4448 -0.2985
  220DG     H22 5059   0.384   3.576   5.539 -1.3294  0.1521 -0.0533
  220DG     H23 5060   0.246   3.662   5.583 -0.1867  0.8332 -0.4715
  221DG      C1 5061   0.763   1.666   1.767  0.0958  0.5372 -0.2557
  221DG      C2 5062   0.407   2.026   2.187 -0.4757  0.6748 -0.0014
  221DG      H3 5063   0.790   1.644   1.664 -0.0008 -1.3749  0.0850
  221DG      H4 5064   0.711   1.582   1.815  0.3172  1.0078  0.8491
  221DG      H5 5065   0.859   1.681   1.816 -0.5413 -0.5187  1.4106
  221DG      H6 5066   0.500   2.070   2.222 -0.8394  1.4785 -0.0328
  221DG      H7 5067   0.321   2.077   2.231 -0.0862 -0.2833  2.0348
  221DG      H8 5068   0.396   1.919   2.206  2.4536  0.2289 -0.3179
  221DG      O9 5069   0.676   1.779   1.779 -0.0645  0.9267 -0.5727
  221DG     O10 5070   0.393   2.014   2.047 -0.5316  0.9458 -0.1996
  221DG     C11 5071   0.731   1.898   1.730 -0.1893  0.3339  0.5593
  221DG     C12 5072   0.396   2.136   1.980 -0.5645  0.1436  0.2888
  221DG     H13 5073   0.774   1.881   1.632  0.7055 -0.6866  1.0977
  221DG     H14 5074   0.812   1.942   1.789 -0.0457  0.5373  0.2109
  221DG     H15 5075   0.474   2.202   2.019 -0.4721  1.4694 -1.9334
  221DG     H16 5076   0.301   2.189   1.988 -0.8097 -0.3416  0.6149
  221DG     C17 5077   0.617   2.004   1.719  0.4806 -0.5157  0.7291
  221DG     C18 5078   0.428   2.106   1.836  0.6989  0.1807  1.0286
  221DG     O19 5079   0.558   2.041   1.840  0.0808  0.0923  0.0264
  221DG     H20 5080   0.534   1.963   1.661 -1.8519 -0.3550  3.6891
  221DG     H21 5081   0.647   2.099   1.675 -0.1959 -1.0386 -0.9574
  221DG     H22 5082   0.352   2.031   1.813  0.5471 -0.5002  3.5237
  221DG     H23 5083   0.423   2.187   1.763 -2.0198  0.1919  1.1305
  222DG      C1 5084   4.887   2.759   2.346 -0.1939  0.3196 -0.6533
  222DG      C2 5085   4.680   2.787   2.812 -0.5560  0.1657  0.1121
  222DG      H3 5086   4.941   2.675   2.388  2.8672  2.1600 -0.6415
  222DG      H4 5087   4.945   2.812   2.271 -0.5974  0.6112 -0.7630
  222DG      H5 5088   4.798   2.717   2.299  0.4741 -0.1517 -1.5033
  222DG      H6 5089   4.759   2.714   2.799  1.0939  2.1027 -1.4871
  222DG      H7 5090   4.586   2.738   2.837 -1.2192  0.8852 -0.8491
  222DG      H8 5091   4.656   2.815   2.709 -1.3811  0.7434  0.4481
  222DG      O9 5092   4.844   2.859   2.439  0.0356 -0.3969  0.0267
  222DG     O10 5093   4.735   2.901   2.876 -0.5403 -0.0215 -0.0491
  222DG     C11 5094   4.787   2.983   2.397 -0.2259  0.0294 -0.6030
  222DG     C12 5095   4.651   3.018   2.864  0.2380  0.3922  0.0036
  222DG     H13 5096   4.693   2.972   2.343 -1.6624  3.5095  0.8917
  222DG     H14 5097   4.859   3.039   2.338  0.3149 -1.1909 -1.1526
  222DG     H15 5098   4.668   3.085   2.949  0.2480  0.4614 -0.0535
  222DG     H16 5099   4.547   2.986   2.872  0.3567 -0.6682 -1.9768
  222DG     C17 5100   4.782   3.067   2.520 -0.0584  0.6261 -0.1008
  222DG     C18 5101   4.677   3.092   2.733 -0.0343  0.3659 -0.4523
  222DG     O19 5102   4.689   3.015   2.619 -0.5353 -0.5099  0.0579
  222DG     H20 5103   4.765   3.172   2.496 -2.2404  0.6631  1.2999
  222DG     H21 5104   4.881   3.073   2.564 -0.4515 -2.4415  1.5077
  222DG     H22 5105   4.610   3.177   2.719  0.1731  0.2820 -2.1286
  222DG     H23 5106   4.774   3.139   2.747  0.5974 -0.8980 -0.4353
  223DG      C1 5107   3.357   2.988   5.045  0.0433  0.4930 -0.4756
  223DG      C2 5108   3.630   2.306   5.103  0.8324  0.1900  0.0327
  223DG      H3 5109   3.464   3.007   5.041 -0.0147  0.9519  0.0125
  223DG      H4 5110   3.291   3.071   5.018 -0.2149  0.0155 -1.3623
  223DG      H5 5111   3.347   2.906   4.974  0.6474 -2.0662  2.1770
  223DG      H6 5112   3.716   2.373   5.105  1.6285 -0.8124  1.7098
  223DG      H7 5113   3.631   2.251   5.197 -0.1324 -1.3492 -0.8119
  223DG      H8 5114   3.657   2.226   5.035 -2.7448 -1.0697 -0.1293
  223DG      O9 5115   3.319   2.937   5.171 -0.2807 -0.4118 -0.0708
  223DG     O10 5116   3.503   2.357   5.072  0.1043 -0.4365  0.4975
  223DG     C11 5117   3.195   2.870   5.167  0.1733  0.1748  0.0108
  223DG     C12 5118   3.479   2.489   5.124  0.4928  0.4680 -0.0989
  223DG     H13 5119   3.109   2.925   5.128 -1.5902 -2.3654  0.0470
  223DG     H14 5120   3.170   2.859   5.273  2.0065  0.3956  0.5047
  223DG     H15 5121   3.555   2.555   5.082 -0.2938 -0.0651 -2.5082
  223DG     H16 5122   3.488   2.499   5.232 -3.2442  0.5097  0.3527
  223DG     C17 5123   3.195   2.732   5.090 -0.5186 -0.2686 -0.4083
  223DG     C18 5124   3.345   2.537   5.075  0.1019  0.6207 -0.6756
  223DG     O19 5125   3.314   2.669   5.121  0.0079 -0.4278  0.0478
  223DG     H20 5126   3.188   2.743   4.982  0.0810  0.5735 -0.3692
  223DG     H21 5127   3.103   2.683   5.124 -1.8791  1.3888 -1.5137
  223DG     H22 5128   3.346   2.545   4.966 -2.8323 -1.0246 -0.9361
  223DG     H23 5129   3.261   2.470   5.095 -0.4049  1.1874 -0.8956
  224DG      C1 5130   2.593   1.143   3.257  0.4609  0.7566  0.4996
  224DG      C2 5131   2.861   1.598   3.872 -0.0962 -0.7627 -0.7583
  224DG      H3 5132   2.675   1.090   3.306  0.5048  0.7270  0.3936
  224DG      H4 5133   2.614   1.178   3.156  1.2546 -1.6071 -0.2220
  224DG      H5 5134   2.510   1.072   3.251  2.1506 -1.2292 -0.4306
  224DG      H6 5135   2.941   1.606   3.945 -0.4461 -2.8609 -0.0978
  224DG      H7 5136   2.918   1.610   3.780 -0.5643 -0.1075 -0.9707
  224DG      H8 5137   2.794   1.679   3.902  1.3959  0.0901  0.3774
  224DG      O9 5138   2.560   1.256   3.340 -0.0358 -0.0826  0.6679
  224DG     O10 5139   2.794   1.472   3.888 -0.2159 -0.3569  0.3865
  224DG     C11 5140   2.679   1.337   3.354  0.0379 -0.5474  0.0084
  224DG     C12 5141   2.687   1.453   3.793  0.3522 -0.4599 -0.1043
  224DG     H13 5142   2.725   1.354   3.257 -2.3214 -1.0234 -1.2642
  224DG     H14 5143   2.751   1.288   3.420 -2.3298 -0.9349  2.4894
  224DG     H15 5144   2.619   1.536   3.812 -0.0744 -0.8879  0.2337
  224DG     H16 5145   2.630   1.362   3.811  0.2922 -0.0907  1.8566
  224DG     C17 5146   2.641   1.468   3.423 -0.1976 -0.6445 -0.1449
  224DG     C18 5147   2.743   1.454   3.645  0.1838  0.2848 -0.2310
  224DG     O19 5148   2.623   1.451   3.563  0.1666  0.0074  0.2648
  224DG     H20 5149   2.552   1.515   3.381  0.9346  1.6539 -0.0863
  224DG     H21 5150   2.724   1.537   3.408 -1.3316  1.3447  2.0647
  224DG     H22 5151   2.800   1.545   3.625  0.4589 -0.3112 -2.3755
  224DG     H23 5152   2.811   1.371   3.625  1.5884  0.8725  1.7872
  225DG      C1 5153   5.032   4.200   0.919 -0.0320  0.2127  0.6957
  225DG      C2 5154   5.445   3.719   0.833  0.3034  0.4304  0.1479
  225DG      H3 5155   4.965   4.264   0.976  1.6957  0.3599  2.6587
  225DG      H4 5156   4.995   4.220   0.818  0.7612 -1.6207 -0.0040
  225DG      H5 5157   5.133   4.238   0.934  1.0359 -2.0043 -0.4234
  225DG      H6 5158   5.480   3.742   0.733 -0.3631 -1.3677 -0.5467
  225DG      H7 5159   5.511   3.775   0.899  0.2062 -1.2173  1.7535
  225DG      H8 5160   5.460   3.612   0.848  1.4301  0.2656 -1.8487
  225DG      O9 5161   5.042   4.060   0.961 -0.3509 -0.0164 -0.2876
  225DG     O10 5162   5.314   3.764   0.865 -0.1428  0.2677 -0.0151
  225DG     C11 5163   4.931   3.979   0.920  0.1065 -0.1021  0.5465
  225DG     C12 5164   5.223   3.671   0.809 -0.4027  0.7491  0.5533
  225DG     H13 5165   4.926   3.987   0.811  0.9777  1.5617  0.5993
  225DG     H14 5166   4.834   4.012   0.956 -0.8311 -1.2532 -0.7747
  225DG     H15 5167   5.234   3.575   0.859 -1.1380  0.2864 -0.1462
  225DG     H16 5168   5.243   3.651   0.703  0.8797  1.0191  0.7188
  225DG     C17 5169   4.947   3.834   0.975  0.0532 -0.2203 -0.7287
  225DG     C18 5170   5.085   3.724   0.824 -0.5383  0.5630 -0.1350
  225DG     O19 5171   5.076   3.783   0.953  1.0271 -0.5328  0.1056
  225DG     H20 5172   4.862   3.770   0.948  0.9262 -1.1967 -1.2073
  225DG     H21 5173   4.939   3.830   1.084 -0.0234  1.8557 -0.6159
  225DG     H22 5174   5.073   3.798   0.745 -0.5000 -0.7852 -1.4714
  225DG     H23 5175   5.015   3.642   0.807 -0.3088  0.3827 -0.2075
  226DG      C1 5176   0.859   0.814   0.340 -0.0250  0.4056  0.3419
  226DG      C2 5177   1.100   1.389   0.442 -0.4513  1.2032  0.1327
  226DG      H3 5178   0.872   0.734   0.267 -1.1746  1.9382 -1.6442
  226DG      H4 5179   0.782   0.877   0.296 -0.6600  0.1070  1.0169
  226DG      H5 5180   0.814   0.769   0.428 -2.7289 -1.4106 -1.7803
  226DG      H6 5181   1.029   1.368   0.521 -0.2110  0.4093  0.1417
  226DG      H7 5182   1.166   1.472   0.469  1.9804 -0.0809 -1.4681
  226DG      H8 5183   1.051   1.420   0.350 -0.6862  3.1630  0.8710
  226DG      O9 5184   0.989   0.867   0.349 -0.0383 -0.4025 -0.2691
  226DG     O10 5185   1.178   1.273   0.404  0.2285 -0.2308  0.3193
  226DG     C11 5186   1.083   0.787   0.412 -0.1343 -0.3959 -0.2700
  226DG     C12 5187   1.244   1.214   0.512  0.0886 -0.2019  0.7254
  226DG     H13 5188   1.105   0.695   0.358  2.1842  0.7344 -1.3750
  226DG     H14 5189   1.046   0.755   0.510 -0.7686  3.0491  0.7756
  226DG     H15 5190   1.184   1.215   0.604 -2.3165 -0.6659 -0.7396
  226DG     H16 5191   1.336   1.268   0.534  0.1949  2.0056 -3.9368
  226DG     C17 5192   1.218   0.856   0.425  0.3523  0.2504  0.0219
  226DG     C18 5193   1.291   1.074   0.488 -0.9413 -0.4654 -0.0678
  226DG     O19 5194   1.185   0.994   0.465  0.6165  1.0002  0.5823
  226DG     H20 5195   1.290   0.849   0.343 -0.8930 -0.4375 -1.0494
  226DG     H21 5196   1.276   0.809   0.503 -0.3410 -1.1153 -0.2643
  226DG     H22 5197   1.371   1.064   0.416  0.8439 -0.8891  1.8685
  226DG     H23 5198   1.342   1.028   0.573 -0.8508 -0.8028 -0.3057
  227DG      C1 5199   5.116   5.142   0.398 -0.2244 -0.1453 -1.2381
  227DG      C2 5200   5.315   5.796   0.634  0.4625 -0.7468  0.9522
  227DG      H3 5201   5.203   5.109   0.455 -1.1455  1.9567  1.6311
  227DG      H4 5202   5.134   5.106   0.297  1.6049 -0.5044 -0.8290
  227DG      H5 5203   5.033   5.092   0.449 -0.7195 -0.6691 -2.5056
  227DG      H6 5204   5.364   5.798   0.536  1.5625 -0.9919  1.4885
  227DG      H7 5205   5.268   5.894   0.648  3.2737  0.7938  0.3160
  227DG      H8 5206   5.392   5.799   0.711 -0.2718 -1.2712  1.7243
  227DG      O9 5207   5.115   5.288   0.410  0.4849  0.1261 -0.0609
  227DG     O10 5208   5.211   5.704   0.667 -0.2768 -0.5206  0.6598
  227DG     C11 5209   5.006   5.357   0.350  0.2276  0.7805  0.3717
  227DG     C12 5210   5.090   5.731   0.594  0.6597  0.3932 -0.3563
  227DG     H13 5211   4.910   5.317   0.382  1.1111 -1.8055  0.0021
  227DG     H14 5212   4.998   5.350   0.242  1.0383 -0.2314  0.3683
  227DG     H15 5213   5.121   5.738   0.490 -1.5743 -1.4446 -1.2148
  227DG     H16 5214   5.057   5.830   0.625 -0.3347  0.0801 -0.3999
  227DG     C17 5215   5.023   5.502   0.398 -0.2019 -0.2461 -0.2983
  227DG     C18 5216   4.981   5.621   0.602 -0.2512 -0.2934  0.1413
  227DG     O19 5217   5.022   5.505   0.540  0.3551 -0.5948  0.2581
  227DG     H20 5218   4.950   5.572   0.359  1.1164  0.7155 -1.1369
  227DG     H21 5219   5.119   5.543   0.365  0.4241 -2.3495 -1.2889
  227DG     H22 5220   4.966   5.598   0.708  1.4154  1.2498  0.7680
  227DG     H23 5221   4.890   5.648   0.549 -0.2211 -0.9529 -0.2641
  228DG      C1 5222   2.677   2.597   1.700  0.3552  0.4187  0.0389
  228DG      C2 5223   2.176   2.544   2.116  0.1923 -0.1154 -0.9456
  228DG      H3 5224   2.752   2.540   1.646 -0.1720  0.6244 -0.9392
  228DG      H4 5225   2.708   2.700   1.719  0.5188  0.6248 -1.2835
  228DG      H5 5226   2.581   2.608   1.650  0.9976  1.4796 -1.0201
  228DG      H6 5227   2.194   2.651   2.122  0.2801 -0.2279  1.6405
  228DG      H7 5228   2.138   2.519   2.016  1.5643 -0.3405 -1.4388
  228DG      H8 5229   2.105   2.512   2.192  1.3822 -3.0902 -0.9383
  228DG      O9 5230   2.654   2.534   1.828 -0.8044  0.1297 -0.3883
  228DG     O10 5231   2.294   2.473   2.131  0.2048 -0.4406 -0.3866
  228DG     C11 5232   2.655   2.390   1.825  0.3677 -0.2192 -0.0884
  228DG     C12 5233   2.281   2.331   2.126 -0.6142 -0.0868 -0.9554
  228DG     H13 5234   2.762   2.370   1.810  0.6267  0.8294  0.2371
  228DG     H14 5235   2.609   2.350   1.735  2.9620  2.2235 -2.7675
  228DG     H15 5236   2.203   2.313   2.052  0.3479 -1.2838 -1.7178
  228DG     H16 5237   2.244   2.282   2.215 -0.6669  0.9784 -0.3803
  228DG     C17 5238   2.606   2.315   1.954 -0.5396 -0.2221 -0.3537
  228DG     C18 5239   2.418   2.273   2.089  0.0274  0.0121  0.8635
  228DG     O19 5240   2.468   2.357   1.984  0.3543  0.1847  0.0113
  228DG     H20 5241   2.670   2.335   2.040  1.1460 -1.2385 -1.3206
  228DG     H21 5242   2.613   2.208   1.934 -1.2423 -0.5884  1.2210
  228DG     H22 5243   2.482   2.273   2.177  0.7182 -0.2511  0.3717
  228DG     H23 5244   2.413   2.167   2.062  2.6129 -0.1259  0.6708
  229DG      C1 5245   0.934   3.076   0.460 -0.1265  0.2627  0.2946
  229DG      C2 5246   0.330   3.033   0.230 -1.3635  0.2262  0.2701
  229DG      H3 5247   0.946   3.179   0.427 -0.9783 -0.7391 -3.5855
  229DG      H4 5248   1.018   3.029   0.511 -0.1107 -0.4264 -0.3582
  229DG      H5 5249   0.847   3.072   0.527 -1.0392 -0.4913 -0.8910
  229DG      H6 5250   0.336   3.126   0.174  0.5299  0.8809  1.4656
  229DG      H7 5251   0.245   2.979   0.189 -1.3776 -0.4801  1.1931
  229DG      H8 5252   0.305   3.077   0.327 -1.3708  0.5720  0.1157
  229DG      O9 5253   0.896   2.993   0.349  0.4308 -0.1570 -0.4490
  229DG     O10 5254   0.458   2.975   0.208  0.3133  0.4063 -0.2326
  229DG     C11 5255   0.897   2.848   0.373  0.0827 -0.6842  0.3033
  229DG     C12 5256   0.459   2.836   0.241 -0.0730  0.8294  0.0520
  229DG     H13 5257   0.864   2.830   0.476 -0.0744  1.9705  0.7864
  229DG     H14 5258   0.997   2.805   0.364 -0.6917 -3.3805  2.9535
  229DG     H15 5259   0.368   2.792   0.202 -0.1773  1.8463 -0.8831
  229DG     H16 5260   0.454   2.833   0.350  0.7210 -0.3257  0.0745
  229DG     C17 5261   0.810   2.774   0.276  0.4403 -0.3683  0.0618
  229DG     C18 5262   0.591   2.773   0.193 -0.2582  0.1763 -0.1718
  229DG     O19 5263   0.681   2.829   0.286 -0.2279 -0.2483  0.3216
  229DG     H20 5264   0.813   2.670   0.308  1.2034 -0.1997  0.5473
  229DG     H21 5265   0.866   2.777   0.182 -0.5124  3.2424 -0.5294
  229DG     H22 5266   0.592   2.664   0.203  0.4052 -0.0551 -2.2640
  229DG     H23 5267   0.610   2.814   0.094 -0.1705 -0.3973 -0.3964
  230DG      C1 5268   0.840   4.712   2.600 -0.7387  0.0142 -0.0274
  230DG      C2 5269   1.359   4.769   3.122  0.4962  0.5231  0.4115
  230DG      H3 5270   0.806   4.799   2.544 -0.9980  2.2421  3.2948
  230DG      H4 5271   0.779   4.705   2.690 -1.8153 -2.4496 -0.8596
  230DG      H5 5272   0.813   4.625   2.539 -3.0074  1.1989 -0.8342
  230DG      H6 5273   1.468   4.760   3.112  0.5386  0.2905  1.0552
  230DG      H7 5274   1.327   4.873   3.131 -1.2259  0.0949 -0.5008
  230DG      H8 5275   1.325   4.733   3.219 -0.6078  1.3035  0.3240
  230DG      O9 5276   0.977   4.715   2.632  0.2741  0.1594 -0.2281
  230DG     O10 5277   1.289   4.702   3.015 -0.1359 -0.2260 -0.8473
  230DG     C11 5278   1.056   4.719   2.520 -0.5560  0.1267 -0.1607
  230DG     C12 5279   1.325   4.748   2.890  0.1698  0.0967 -0.0201
  230DG     H13 5280   1.037   4.811   2.465  1.4152  0.6642 -0.0389
  230DG     H14 5281   1.031   4.635   2.454 -1.5946  0.2166  0.1119
  230DG     H15 5282   1.430   4.722   2.879  0.0692  0.4557 -2.1750
  230DG     H16 5283   1.312   4.856   2.887 -1.3524  0.0099  1.5718
  230DG     C17 5284   1.206   4.686   2.554  0.5866 -0.5431 -0.3612
  230DG     C18 5285   1.246   4.679   2.783 -0.0028  0.1356  0.7773
  230DG     O19 5286   1.269   4.753   2.662 -0.1401 -0.7476  0.8208
  230DG     H20 5287   1.258   4.725   2.467 -1.5455  0.6460 -1.1640
  230DG     H21 5288   1.219   4.578   2.566 -1.6766 -0.8787 -0.5850
  230DG     H22 5289   1.295   4.582   2.777 -0.5635 -0.3793  3.2682
  230DG     H23 5290   1.140   4.678   2.807 -0.2268 -0.3321 -0.2295
  231DG      C1 5291   0.773   1.378   4.573 -0.2361  0.2365 -0.1320
  231DG      C2 5292   0.784   1.520   3.872 -0.6883 -0.3203 -0.2826
  231DG      H3 5293   0.736   1.284   4.613 -2.5209  0.3934 -1.6835
  231DG      H4 5294   0.701   1.403   4.495 -1.4341 -0.8080  0.6126
  231DG      H5 5295   0.786   1.458   4.646 -0.0819  1.7842 -1.7869
  231DG      H6 5296   0.737   1.619   3.875 -0.1345  0.0831 -2.9750
  231DG      H7 5297   0.838   1.509   3.779  2.2923  0.4114  1.2303
  231DG      H8 5298   0.708   1.442   3.864  0.3615 -1.2268 -1.9203
  231DG      O9 5299   0.898   1.356   4.507 -0.0729 -0.1940  0.3337
  231DG     O10 5300   0.880   1.504   3.977  0.3858  0.2220  0.8385
  231DG     C11 5301   0.966   1.472   4.470 -0.2074 -0.3208 -0.6317
  231DG     C12 5302   0.952   1.378   3.987 -0.2957  0.1977  0.0848
  231DG     H13 5303   1.016   1.504   4.562 -1.0822  0.2015 -0.3233
  231DG     H14 5304   0.907   1.564   4.465  0.0228 -0.1260  0.0246
  231DG     H15 5305   0.999   1.348   3.893 -0.6909 -0.6804  0.1583
  231DG     H16 5306   0.880   1.297   3.998 -0.6000  0.2689 -1.2113
  231DG     C17 5307   1.050   1.453   4.343 -0.5105  0.6859  0.7227
  231DG     C18 5308   1.034   1.378   4.120  0.0106 -0.1497  0.3880
  231DG     O19 5309   0.963   1.409   4.239 -0.7462 -0.3598 -0.3617
  231DG     H20 5310   1.125   1.375   4.358 -1.7426 -0.9112 -0.8928
  231DG     H21 5311   1.097   1.546   4.312 -0.1460  0.1122 -0.5098
  231DG     H22 5312   1.070   1.277   4.140  0.6988 -0.3259 -1.4909
  231DG     H23 5313   1.117   1.447   4.102  0.1350 -0.1553  0.9310
  232DG      C1 5314   1.027   0.469   1.630 -0.0519 -0.1256  0.0778
  232DG      C2 5315   1.074   0.357   2.331 -0.1000  0.2162 -0.3492
  232DG      H3 5316   1.060   0.434   1.532 -0.4125  1.0544 -0.4902
  232DG      H4 5317   1.069   0.566   1.658 -2.5095  0.7060  1.1832
  232DG      H5 5318   0.923   0.487   1.604  0.0656 -1.8957 -1.8844
  232DG      H6 5319   1.061   0.279   2.406  2.0925  1.0451  1.0003
  232DG      H7 5320   1.175   0.389   2.357  0.3457 -0.9945 -0.5263
  232DG      H8 5321   0.990   0.425   2.328  0.7163  1.2401 -1.9679
  232DG      O9 5322   1.058   0.373   1.732  0.1407 -0.3741  0.5219
  232DG     O10 5323   1.085   0.298   2.203  0.0691 -0.2058 -0.2256
  232DG     C11 5324   0.974   0.248   1.722  0.0361  0.1435 -0.6400
  232DG     C12 5325   0.978   0.202   2.192 -0.2622 -0.0518 -0.8069
  232DG     H13 5326   0.991   0.203   1.624  2.3024  0.2889 -0.3636
  232DG     H14 5327   0.867   0.270   1.719 -0.0992 -0.6090 -2.1537
  232DG     H15 5328   0.882   0.253   2.182  1.0887  2.4950 -1.9410
  232DG     H16 5329   0.970   0.124   2.267  0.3330  1.3552  0.7736
  232DG     C17 5330   1.002   0.149   1.833  0.7650 -0.4392  0.1492
  232DG     C18 5331   0.990   0.123   2.058 -0.5483 -0.1569 -0.8017
  232DG     O19 5332   0.986   0.219   1.951 -0.8006  0.2775 -0.2443
  232DG     H20 5333   1.104   0.116   1.817  0.5919 -0.5160 -0.8453
  232DG     H21 5334   0.930   0.069   1.818 -1.1352  0.9192  1.5479
  232DG     H22 5335   1.089   0.077   2.054  0.3149  1.5429 -0.0499
  232DG     H23 5336   0.912   0.048   2.056 -0.4308 -0.3065  0.0882
  233DG      C1 5337   4.130   0.202   3.576 -0.2541  0.0858  0.2088
  233DG      C2 5338   3.888  -0.339   3.879 -0.0385 -0.2168  0.2670
  233DG      H3 5339   4.043   0.221   3.514 -1.0458  1.4194  1.6582
  233DG      H4 5340   4.191   0.124   3.530 -1.1789 -0.0908 -0.7551
  233DG      H5 5341   4.193   0.291   3.574  1.6774 -1.2257 -0.7533
  233DG      H6 5342   3.849  -0.393   3.965  0.1976 -2.4077 -0.9302
  233DG      H7 5343   3.796  -0.328   3.822 -0.1850 -0.6651  0.4080
  233DG      H8 5344   3.960  -0.401   3.827  0.9384  0.1036  1.2144
  233DG      O9 5345   4.096   0.150   3.705 -0.0649  0.0698 -0.3473
  233DG     O10 5346   3.932  -0.206   3.901  0.0439 -0.3879 -0.0704
  233DG     C11 5347   4.042   0.255   3.785  0.0010 -0.2111 -0.1096
  233DG     C12 5348   3.859  -0.132   3.999  0.6236 -0.3938 -0.0644
  233DG     H13 5349   3.949   0.297   3.746 -0.2654 -0.8446 -0.1710
  233DG     H14 5350   4.116   0.335   3.790 -0.3890  0.0651  1.8345
  233DG     H15 5351   3.850  -0.186   4.093 -2.1463  1.1846  0.6953
  233DG     H16 5352   3.761  -0.123   3.951  0.1801  1.8944  1.1700
  233DG     C17 5353   4.007   0.207   3.923 -0.3791  0.5952  0.4295
  233DG     C18 5354   3.924   0.006   4.028  0.9046  0.7999  0.0584
  233DG     O19 5355   3.938   0.079   3.909  0.1048  0.5842  0.3628
  233DG     H20 5356   3.946   0.280   3.976 -0.8678  2.0732 -2.0157
  233DG     H21 5357   4.099   0.183   3.977 -0.4912 -0.7978  0.0450
  233DG     H22 5358   3.869   0.053   4.109 -0.8259  1.3356 -1.3621
  233DG     H23 5359   4.026  -0.022   4.056  1.0398  0.4821 -0.7116
  234DG      C1 5360   3.700   3.540   2.474  0.2713 -0.1391 -0.2036
  234DG      C2 5361   4.398   3.632   2.364  0.0624  0.5758  0.2399
  234DG      H3 5362   3.601   3.567   2.512  0.9502  0.4708  1.2111
  234DG      H4 5363   3.746   3.465   2.538 -1.7752 -0.3806  1.0622
  234DG      H5 5364   3.697   3.489   2.378 -1.8556 -1.6542  0.5965
  234DG      H6 5365   4.410   3.563   2.447  0.6972 -1.3887 -1.4025
  234DG      H7 5366   4.379   3.577   2.271 -1.4826  0.2714  0.7048
  234DG      H8 5367   4.491   3.686   2.353  1.4752 -1.6642  0.5688
  234DG      O9 5368   3.792   3.647   2.459 -0.0513  0.1754 -0.1141
  234DG     O10 5369   4.287   3.710   2.393  0.2480  0.4547 -0.6263
  234DG     C11 5370   3.812   3.720   2.581  0.8932 -0.3429  0.5923
  234DG     C12 5371   4.283   3.771   2.515  0.7291 -0.5296 -0.3481
  234DG     H13 5372   3.826   3.648   2.662  3.0030 -1.3539 -0.6080
  234DG     H14 5373   3.719   3.773   2.600  0.8055 -0.6689  1.1037
  234DG     H15 5374   4.366   3.836   2.541 -1.9638  2.8242  0.6089
  234DG     H16 5375   4.278   3.697   2.595 -2.6574 -0.7919 -0.6264
  234DG     C17 5376   3.923   3.823   2.566 -0.3993 -0.2358  0.0813
  234DG     C18 5377   4.156   3.844   2.545 -0.5241  0.3961  0.1212
  234DG     O19 5378   4.041   3.753   2.538  0.1269 -0.3320 -0.2597
  234DG     H20 5379   3.923   3.877   2.661 -0.7330 -0.3218  0.1350
  234DG     H21 5380   3.898   3.891   2.485 -0.4515 -1.1384 -0.6858
  234DG     H22 5381   4.145   3.882   2.647  0.8618  1.3960 -0.0811
  234DG     H23 5382   4.145   3.930   2.478  1.0869 -1.0025 -2.0758
  235DG      C1 5383   3.696   3.681   3.470  0.1681  0.6914 -0.2602
  235DG      C2 5384   3.913   4.400   3.996  0.1275  0.4951 -0.7036
  235DG      H3 5385   3.790   3.655   3.423  0.1757 -0.0294  0.1321
  235DG      H4 5386   3.626   3.673   3.387  0.0854  2.1399 -0.3528
  235DG      H5 5387   3.675   3.609   3.550  0.8712  2.4505  1.6175
  235DG      H6 5388   3.834   4.414   4.069 -0.6348  1.3770 -1.6616
  235DG      H7 5389   4.000   4.344   4.031  1.6353  2.4685 -1.0615
  235DG      H8 5390   3.957   4.499   3.983 -0.0306  0.7244  0.4008
  235DG      O9 5391   3.732   3.813   3.510  0.3216 -0.4065  0.7365
  235DG     O10 5392   3.871   4.338   3.874 -0.0835  0.4508  0.2544
  235DG     C11 5393   3.666   3.855   3.627  0.2880 -0.2808 -0.1642
  235DG     C12 5394   3.848   4.205   3.863  0.0463  0.1118 -0.0641
  235DG     H13 5395   3.698   3.806   3.719  3.8603  2.4123  0.2068
  235DG     H14 5396   3.563   3.826   3.603  0.8709 -0.4839 -2.7560
  235DG     H15 5397   3.766   4.167   3.923  0.2440 -0.9533 -0.4468
  235DG     H16 5398   3.942   4.154   3.884 -0.1826 -1.3269 -2.2097
  235DG     C17 5399   3.672   4.010   3.643 -0.3406  0.8838  0.6323
  235DG     C18 5400   3.817   4.187   3.713  0.4013  0.0883  0.3555
  235DG     O19 5401   3.797   4.051   3.696 -0.0391  0.1561  0.3424
  235DG     H20 5402   3.589   4.051   3.701 -1.7824  0.6966 -1.2005
  235DG     H21 5403   3.668   4.048   3.541 -0.1324  0.5441  0.4972
  235DG     H22 5404   3.734   4.250   3.680  0.4538  0.3951  0.8092
  235DG     H23 5405   3.886   4.225   3.638 -0.1594  0.7262  0.1492
  236DG      C1 5406   2.047   5.418   1.079 -0.3336  0.4847 -0.7691
  236DG      C2 5407   1.975   4.941   1.577  0.5653 -0.2535  0.1924
  236DG      H3 5408   2.066   5.415   0.972 -1.7693 -0.5115 -1.0226
  236DG      H4 5409   2.137   5.446   1.135 -0.4952 -1.0316  0.3096
  236DG      H5 5410   1.980   5.504   1.088 -1.4516 -0.4351 -0.0580
  236DG      H6 5411   1.969   5.028   1.642 -1.2787 -0.7097  0.6969
  236DG      H7 5412   1.895   4.872   1.602 -0.4948  0.8175 -0.1593
  236DG      H8 5413   2.068   4.888   1.603  0.6219 -0.3648 -0.2277
  236DG      O9 5414   1.996   5.302   1.141  0.1441 -0.5801 -0.3766
  236DG     O10 5415   1.947   4.972   1.440  0.2517 -0.3218  0.1868
  236DG     C11 5416   1.886   5.246   1.068 -0.0295  0.2998 -0.0222
  236DG     C12 5417   1.944   4.867   1.353  1.0786 -0.3213  0.9041
  236DG     H13 5418   1.921   5.216   0.969  1.7094 -0.0637  0.6698
  236DG     H14 5419   1.814   5.327   1.060 -0.5195 -0.0761  0.5000
  236DG     H15 5420   1.881   4.789   1.395 -3.4499  2.5277 -0.0202
  236DG     H16 5421   2.045   4.835   1.324  0.0323 -2.7301 -0.4585
  236DG     C17 5422   1.818   5.126   1.130 -0.3684  0.1699  0.0391
  236DG     C18 5423   1.863   4.927   1.233  0.0740  0.2489 -0.9818
  236DG     O19 5424   1.921   5.047   1.182  0.5738  0.6415  0.0896
  236DG     H20 5425   1.759   5.073   1.055  0.7484  0.7735 -1.3118
  236DG     H21 5426   1.751   5.164   1.207 -0.8285 -1.5656  0.5332
  236DG     H22 5427   1.858   4.863   1.145 -2.0087  0.5945 -1.1539
  236DG     H23 5428   1.759   4.943   1.260 -0.7050 -2.4421 -2.0064
  237DG      C1 5429   5.121   5.416   3.118  0.3710  0.2758  0.2781
  237DG      C2 5430   5.296   4.880   2.735  0.2913 -0.5956  0.7436
  237DG      H3 5431   5.154   5.506   3.066 -1.8437 -0.0406 -1.8462
  237DG      H4 5432   5.113   5.442   3.224 -0.9278  0.0087  0.2581
  237DG      H5 5433   5.018   5.391   3.093 -0.1456  1.6426  0.9144
  237DG      H6 5434   5.337   4.779   2.735  0.4525 -0.5412 -0.1263
  237DG      H7 5435   5.189   4.882   2.718  0.5951 -0.2154 -1.3634
  237DG      H8 5436   5.336   4.940   2.653 -1.0121  2.7503  2.3626
  237DG      O9 5437   5.206   5.306   3.099  0.4650  0.7862  0.0135
  237DG     O10 5438   5.324   4.960   2.852  0.1347  0.7049  0.3719
  237DG     C11 5439   5.332   5.327   3.151 -0.0368 -0.0524  0.0521
  237DG     C12 5440   5.463   4.975   2.883 -0.2101  0.0861 -0.9236
  237DG     H13 5441   5.328   5.364   3.254 -0.7493  0.4829 -0.1561
  237DG     H14 5442   5.381   5.405   3.092  0.0048 -0.3340 -0.2914
  237DG     H15 5443   5.514   5.047   2.818  3.6190 -0.3582  1.3068
  237DG     H16 5444   5.514   4.879   2.876  0.6624  0.6240 -2.6641
  237DG     C17 5445   5.418   5.199   3.163 -0.1604  0.4829  0.6846
  237DG     C18 5446   5.485   5.020   3.023 -0.1079  0.1335 -0.7980
  237DG     O19 5447   5.416   5.141   3.028  0.1648  0.0975  0.9374
  237DG     H20 5448   5.384   5.122   3.232 -0.1737 -2.3739 -2.2951
  237DG     H21 5449   5.521   5.221   3.192 -0.0359 -0.8125  1.3206
  237DG     H22 5450   5.439   4.948   3.090  1.3874 -0.3312 -0.2302
  237DG     H23 5451   5.588   5.045   3.047  0.0818 -1.3906  0.1490
  238DG      C1 5452   2.001   0.556   4.701  0.5915  0.0409  0.2137
  238DG      C2 5453   2.507   0.901   4.655 -0.3125  0.1385  0.4546
  238DG      H3 5454   1.899   0.595   4.711 -0.4596 -1.7763 -2.2722
  238DG      H4 5455   2.031   0.522   4.800  2.1618 -0.7623 -0.5012
  238DG      H5 5456   1.995   0.459   4.652 -0.9338  0.4637 -0.5373
  238DG      H6 5457   2.526   0.824   4.729 -0.1729  0.9453  1.2793
  238DG      H7 5458   2.600   0.944   4.615  0.8981 -1.2975  1.5924
  238DG      H8 5459   2.444   0.977   4.700 -1.2036  0.4513 -1.2240
  238DG      O9 5460   2.089   0.650   4.637  0.6430  0.4935 -0.2990
  238DG     O10 5461   2.435   0.827   4.564  0.3940 -0.0685  0.5376
  238DG     C11 5462   2.024   0.698   4.514  0.1320  0.6653 -0.4858
  238DG     C12 5463   2.392   0.907   4.446  0.2890  0.4152  0.0016
  238DG     H13 5464   1.934   0.750   4.545 -0.0413  0.8692 -1.2987
  238DG     H14 5465   2.015   0.613   4.446  0.5902  0.2801 -0.0698
  238DG     H15 5466   2.484   0.950   4.406  0.7614 -1.0190 -0.5058
  238DG     H16 5467   2.322   0.986   4.473 -0.0812  0.5782 -1.3592
  238DG     C17 5468   2.118   0.809   4.457 -0.3332  0.3675 -0.3313
  238DG     C18 5469   2.321   0.834   4.338 -0.3404  0.4895 -0.0888
  238DG     O19 5470   2.228   0.740   4.392  0.1635 -0.0461  0.1976
  238DG     H20 5471   2.157   0.873   4.537 -0.9500  0.4937 -0.1289
  238DG     H21 5472   2.074   0.874   4.381  2.5026  1.1013 -1.4685
  238DG     H22 5473   2.268   0.904   4.273  0.4228 -0.3541 -1.6851
  238DG     H23 5474   2.386   0.771   4.277  0.2293  1.3253 -0.3498
  239DG      C1 5475   3.364   4.494   4.929 -0.0681 -0.5186 -0.1199
  239DG      C2 5476   3.737   5.032   4.742 -0.1683 -0.6206 -0.0856
  239DG      H3 5477   3.283   4.567   4.933  1.0631  0.7260  0.9977
  239DG      H4 5478   3.346   4.422   5.008 -1.4585 -0.7347 -0.6100
  239DG      H5 5479   3.366   4.449   4.829  1.5131 -2.4776  0.7287
  239DG      H6 5480   3.777   5.111   4.805 -1.8031 -0.3985  0.7160
  239DG      H7 5481   3.802   5.014   4.656  0.9285  0.3789  0.5046
  239DG      H8 5482   3.635   5.044   4.706  0.6085  1.4062 -1.8300
  239DG      O9 5483   3.477   4.576   4.971  0.5127  0.3331  1.0852
  239DG     O10 5484   3.725   4.925   4.826  0.1977  0.1066  0.2608
  239DG     C11 5485   3.593   4.493   4.973  0.2794  0.1773  0.1007
  239DG     C12 5486   3.852   4.889   4.889 -0.5848  0.6800 -0.4737
  239DG     H13 5487   3.615   4.469   4.869  0.2171  1.8926 -0.3516
  239DG     H14 5488   3.587   4.406   5.038 -0.8123 -1.2005 -1.7516
  239DG     H15 5489   3.894   4.967   4.952 -0.3655  0.8472 -0.8240
  239DG     H16 5490   3.929   4.856   4.819  0.7113  0.5625  0.9727
  239DG     C17 5491   3.701   4.583   5.041 -0.8139 -0.4553 -0.7214
  239DG     C18 5492   3.823   4.766   4.987 -0.0521 -0.8642  0.6155
  239DG     O19 5493   3.728   4.679   4.941  0.2048  0.0329  0.3248
  239DG     H20 5494   3.792   4.535   5.077 -0.1911  2.2953  1.8038
  239DG     H21 5495   3.657   4.622   5.133 -0.6434  0.6501 -1.0983
  239DG     H22 5496   3.916   4.711   5.004  0.2624 -0.8970 -0.9755
  239DG     H23 5497   3.794   4.811   5.082  2.0781  0.4938  0.6966
  240DG      C1 5498   4.994   2.602   1.771  0.1148 -0.8667 -0.8844
  240DG      C2 5499   4.609   2.743   1.160  0.0132  0.0207  0.3663
  240DG      H3 5500   4.974   2.495   1.772 -0.6801 -0.7238 -0.5831
  240DG      H4 5501   5.003   2.632   1.875 -1.3848  0.1890 -1.0334
  240DG      H5 5502   5.095   2.625   1.735  0.1622  1.2011  0.4115
  240DG      H6 5503   4.683   2.682   1.109 -0.2375 -1.3708  1.5850
  240DG      H7 5504   4.517   2.710   1.112 -0.3444  2.1666 -0.5560
  240DG      H8 5505   4.609   2.848   1.131 -0.6914  0.4976  1.9413
  240DG      O9 5506   4.898   2.682   1.705 -0.4713 -0.4797  0.1735
  240DG     O10 5507   4.612   2.730   1.298  0.3889 -0.1092 -0.6779
  240DG     C11 5508   4.767   2.669   1.761 -0.0611  0.6002  0.1702
  240DG     C12 5509   4.522   2.811   1.375  0.5669 -0.1552  0.1787
  240DG     H13 5510   4.774   2.678   1.869 -4.3899  0.7444  0.5951
  240DG     H14 5511   4.716   2.580   1.724 -2.7701  2.5124 -1.0725
  240DG     H15 5512   4.421   2.798   1.337  1.1496 -1.4383 -1.0289
  240DG     H16 5513   4.546   2.915   1.352  1.9805 -1.0177 -2.7035
  240DG     C17 5514   4.674   2.784   1.713  0.4830  0.0850 -0.2513
  240DG     C18 5515   4.516   2.788   1.526 -0.6765  0.0568  0.2715
  240DG     O19 5516   4.654   2.777   1.569  0.2020  0.1972  0.2373
  240DG     H20 5517   4.719   2.876   1.748  0.8826 -0.5725  1.0120
  240DG     H21 5518   4.578   2.777   1.764  1.1856 -0.1171  1.0753
  240DG     H22 5519   4.474   2.881   1.565  1.1279  1.4131 -0.8604
  240DG     H23 5520   4.463   2.698   1.557  0.6858 -0.4986  1.0780
  241DG      C1 5521   2.478   0.382   0.879  0.2640  0.2003  0.7155
  241DG      C2 5522   2.961   0.864   0.844  0.5907  0.3729 -0.3857
  241DG      H3 5523   2.412   0.421   0.801  1.9254  0.7288 -0.4660
  241DG      H4 5524   2.437   0.402   0.978 -2.2641  0.2919 -0.2510
  241DG      H5 5525   2.470   0.274   0.861 -0.3276  0.6370 -2.1917
  241DG      H6 5526   3.045   0.906   0.789  1.3855  3.1780  2.6347
  241DG      H7 5527   2.869   0.918   0.822  1.0969  1.1363 -0.6776
  241DG      H8 5528   2.977   0.900   0.945 -1.3273  2.4730 -0.7448
  241DG      O9 5529   2.610   0.410   0.861 -0.2136 -0.1077 -0.0321
  241DG     O10 5530   2.951   0.716   0.834  0.4564  0.0101  0.5981
  241DG     C11 5531   2.689   0.342   0.967  0.1913  0.2472 -0.2140
  241DG     C12 5532   3.063   0.650   0.888  0.0150 -0.1271  0.0976
  241DG     H13 5533   2.661   0.237   0.980  1.4583 -0.2191 -1.1109
  241DG     H14 5534   2.667   0.389   1.063 -2.4870  1.0006 -1.0880
  241DG     H15 5535   3.075   0.694   0.987  2.8904 -0.7344  0.1094
  241DG     H16 5536   3.146   0.672   0.821 -0.6192  1.4997 -0.1820
  241DG     C17 5537   2.839   0.358   0.943 -0.0784  0.3806 -0.1477
  241DG     C18 5538   3.022   0.503   0.885  0.5807 -0.2045 -0.1363
  241DG     O19 5539   2.879   0.492   0.914  0.0415  0.2253  0.4456
  241DG     H20 5540   2.867   0.284   0.868 -2.1657  1.3179 -1.9506
  241DG     H21 5541   2.899   0.344   1.033  1.6521 -1.6022 -1.5314
  241DG     H22 5542   3.051   0.470   0.785 -0.6752  0.4979 -0.7611
  241DG     H23 5543   3.077   0.443   0.957  0.3654 -0.1852  0.0456
  242DG      C1 5544   0.182   4.873   1.710 -0.0032 -0.0494 -0.3657
  242DG      C2 5545   0.535   4.929   2.255  0.0208 -0.0984 -0.4370
  242DG      H3 5546   0.117   4.799   1.757 -2.3050  2.2192  0.2439
  242DG      H4 5547   0.272   4.840   1.658  1.9544  1.7815  1.6305
  242DG      H5 5548   0.124   4.927   1.636 -0.7518 -0.3636 -0.0242
  242DG      H6 5549   0.617   4.956   2.322 -1.6146  4.2862  0.1471
  242DG      H7 5550   0.473   4.858   2.310  0.0032  1.1591  1.2485
  242DG      H8 5551   0.582   4.876   2.172 -0.3151 -0.4340 -0.4117
  242DG      O9 5552   0.218   4.968   1.812 -1.1446 -0.4079  0.4066
  242DG     O10 5553   0.470   5.040   2.188 -0.3663  0.5555  0.0755
  242DG     C11 5554   0.118   5.046   1.883 -0.2825 -0.0625 -0.5680
  242DG     C12 5555   0.379   5.108   2.267 -0.3442 -0.0316 -0.6060
  242DG     H13 5556   0.065   4.977   1.949 -2.4512  1.5305 -0.5205
  242DG     H14 5557   0.041   5.068   1.809 -1.4916 -1.0727  0.3273
  242DG     H15 5558   0.438   5.175   2.331  1.1881 -0.8459 -1.1070
  242DG     H16 5559   0.321   5.046   2.335 -0.0220 -2.1508 -2.1487
  242DG     C17 5560   0.164   5.160   1.974  0.1161  0.6527  0.8057
  242DG     C18 5561   0.286   5.194   2.179 -0.5506 -0.3900  0.1013
  242DG     O19 5562   0.244   5.102   2.077 -0.2885 -0.1094  0.1467
  242DG     H20 5563   0.070   5.204   2.008 -2.0419 -1.7513 -1.6490
  242DG     H21 5564   0.209   5.236   1.910  1.2992 -1.0978 -0.5022
  242DG     H22 5565   0.187   5.226   2.213 -1.5738  0.2110 -3.0856
  242DG     H23 5566   0.341   5.279   2.138  0.0508 -0.8086  0.0299
  243DG      C1 5567   2.680   3.777   0.806 -0.3830  0.4284  0.0246
  243DG      C2 5568   2.300   3.612   1.392  1.1985  0.5382  0.5427
  243DG      H3 5569   2.776   3.819   0.776  1.3914 -0.6484  3.5875
  243DG      H4 5570   2.613   3.863   0.803 -0.0596  0.6991  0.3697
  243DG      H5 5571   2.652   3.702   0.733 -0.3391  3.5504 -3.4860
  243DG      H6 5572   2.260   3.713   1.375 -0.3109 -0.0327  0.4974
  243DG      H7 5573   2.241   3.545   1.330  4.0519 -0.9136 -0.7804
  243DG      H8 5574   2.286   3.584   1.497 -3.9763  2.3470  0.6222
  243DG      O9 5575   2.671   3.728   0.940  0.2034 -0.3118 -0.4660
  243DG     O10 5576   2.434   3.616   1.340  0.2908 -0.4165 -0.6619
  243DG     C11 5577   2.749   3.614   0.959 -0.5229 -0.0454 -0.5596
  243DG     C12 5578   2.491   3.480   1.347  0.3708 -0.6850  0.5637
  243DG     H13 5579   2.852   3.621   0.923 -0.1902 -2.0672 -0.1125
  243DG     H14 5580   2.721   3.528   0.897 -0.9474  0.0851 -0.5529
  243DG     H15 5581   2.434   3.412   1.283  1.5763 -1.1923 -0.0035
  243DG     H16 5582   2.493   3.442   1.449  0.1580 -0.7345  0.5489
  243DG     C17 5583   2.752   3.566   1.105  0.3266  0.4590 -0.0538
  243DG     C18 5584   2.632   3.507   1.299 -0.4213 -0.3449 -0.5651
  243DG     O19 5585   2.622   3.562   1.167  0.5053  0.1539  0.6147
  243DG     H20 5586   2.803   3.640   1.167  0.2352 -1.1229  2.0061
  243DG     H21 5587   2.811   3.476   1.122 -1.4934 -0.5230  1.4508
  243DG     H22 5588   2.691   3.582   1.352 -1.5212  0.5577 -0.5930
  243DG     H23 5589   2.684   3.411   1.293  0.5254  0.2124 -1.6401
  244DG      C1 5590   0.760   4.216   4.842  0.1246 -0.2351  0.3018
  244DG      C2 5591   1.329   4.134   4.449  0.1611  0.4772  0.3433
  244DG      H3 5592   0.675   4.165   4.887  1.1063 -0.8518  1.5291
  244DG      H4 5593   0.719   4.300   4.786  2.7486  0.1431 -1.2066
  244DG      H5 5594   0.829   4.241   4.923  0.8029  0.4312 -0.4634
  244DG      H6 5595   1.401   4.140   4.531 -0.5523  0.3782  0.9980
  244DG      H7 5596   1.378   4.088   4.363 -0.2429 -0.6058  0.6761
  244DG      H8 5597   1.307   4.233   4.410  1.3775 -0.0520 -1.8232
  244DG      O9 5598   0.835   4.124   4.751 -0.5973  0.0366  0.6310
  244DG     O10 5599   1.213   4.066   4.490  0.4202  0.0361  0.1796
  244DG     C11 5600   0.869   4.011   4.818  1.4152  0.2990  0.9274
  244DG     C12 5601   1.242   3.937   4.538 -0.2954  0.0144  0.2912
  244DG     H13 5602   0.783   3.951   4.849  2.6594 -2.6510 -0.8795
  244DG     H14 5603   0.935   4.033   4.902  0.5692 -2.4114  2.4319
  244DG     H15 5604   1.313   3.934   4.620  0.3795 -0.6114 -0.2988
  244DG     H16 5605   1.283   3.880   4.454  2.1920  0.4352  1.1357
  244DG     C17 5606   0.933   3.911   4.728  0.1254  0.3564 -0.0645
  244DG     C18 5607   1.110   3.873   4.583 -0.2749 -0.5666 -0.1209
  244DG     O19 5608   1.041   3.964   4.663  0.3150 -0.4077  0.2058
  244DG     H20 5609   0.867   3.889   4.644  0.9889  3.4627 -1.7359
  244DG     H21 5610   0.952   3.820   4.785  1.6211 -0.2716 -1.5068
  244DG     H22 5611   1.054   3.834   4.498  0.6684  1.7059 -1.9018
  244DG     H23 5612   1.132   3.792   4.652  1.7321  1.2917  1.5617
  245DG      C1 5613   0.246   0.340   0.580 -0.6168  0.0747  0.0727
  245DG      C2 5614   0.620  -0.179   0.557  1.2384 -0.4358 -0.2122
  245DG      H3 5615   0.142   0.360   0.555  0.3158  1.4102 -3.2403
  245DG      H4 5616   0.289   0.439   0.591 -3.3521  1.3916 -0.2596
  245DG      H5 5617   0.249   0.293   0.679 -1.3720  1.3174  0.7143
  245DG      H6 5618   0.678  -0.250   0.498  0.5298 -0.6213 -0.7116
  245DG      H7 5619   0.695  -0.130   0.619  0.3181  0.3038  0.3386
  245DG      H8 5620   0.556  -0.223   0.634  1.4191 -0.3055  0.0112
  245DG      O9 5621   0.291   0.252   0.481 -0.2759 -0.1213  0.8917
  245DG     O10 5622   0.546  -0.078   0.498 -0.1445 -0.1739  0.3339
  245DG     C11 5623   0.321   0.322   0.360  0.3804  0.4205  0.3306
  245DG     C12 5624   0.625  -0.002   0.405 -0.2353 -1.2105 -0.1642
  245DG     H13 5625   0.402   0.391   0.387 -0.2071  0.5223  1.9121
  245DG     H14 5626   0.241   0.380   0.314 -1.2280 -1.1587  1.0246
  245DG     H15 5627   0.651  -0.041   0.307 -4.1259  1.0453 -2.3377
  245DG     H16 5628   0.719   0.025   0.453 -0.5321  0.7501 -0.6161
  245DG     C17 5629   0.379   0.217   0.255  0.1705  0.1299  0.0782
  245DG     C18 5630   0.552   0.131   0.375  0.1603 -0.2105 -0.0260
  245DG     O19 5631   0.429   0.097   0.312  0.7894 -0.4578  0.0921
  245DG     H20 5632   0.451   0.259   0.184 -0.0048  0.5278  0.1321
  245DG     H21 5633   0.303   0.184   0.184  2.8657 -1.1081 -2.4514
  245DG     H22 5634   0.531   0.189   0.465  0.3136  1.8835 -1.2623
  245DG     H23 5635   0.601   0.208   0.315 -0.0218 -0.5226 -0.5855
  246DG      C1 5636   1.564   1.926   2.908  0.1243 -0.6972 -0.2530
  246DG      C2 5637   1.058   2.325   2.877 -0.3569  0.4410 -0.3765
  246DG      H3 5638   1.567   1.946   3.015 -0.2522 -1.3834 -0.1121
  246DG      H4 5639   1.632   1.995   2.858 -0.3549 -0.1088 -0.1011
  246DG      H5 5640   1.603   1.825   2.890 -1.6030 -1.3579 -0.4167
  246DG      H6 5641   1.094   2.405   2.812 -2.1583  2.4845  1.0033
  246DG      H7 5642   0.950   2.327   2.882 -0.3326 -0.3341  2.3743
  246DG      H8 5643   1.104   2.352   2.973  0.8092 -0.2855 -0.6958
  246DG      O9 5644   1.438   1.941   2.852  0.0015 -0.0561  0.1921
  246DG     O10 5645   1.095   2.193   2.830 -0.5300 -0.3662 -0.0366
  246DG     C11 5646   1.424   1.855   2.739 -0.7287  0.0036  0.6868
  246DG     C12 5647   1.051   2.162   2.701 -0.7469  0.2366 -0.1578
  246DG     H13 5648   1.451   1.751   2.759 -0.3076  0.2423  1.3852
  246DG     H14 5649   1.501   1.882   2.668 -0.6964 -1.2442  0.2189
  246DG     H15 5650   1.077   2.240   2.629 -0.9954  2.5172  2.0561
  246DG     H16 5651   0.943   2.148   2.694 -0.5153 -1.5472 -0.6122
  246DG     C17 5652   1.289   1.879   2.673  0.0808  0.4853 -0.2883
  246DG     C18 5653   1.109   2.027   2.656  0.6953  0.0799  0.0404
  246DG     O19 5654   1.238   2.007   2.702 -0.1382 -0.5214 -0.2683
  246DG     H20 5655   1.217   1.800   2.696  0.7448 -0.1105 -0.2444
  246DG     H21 5656   1.301   1.871   2.565  0.0301 -0.9256 -0.2047
  246DG     H22 5657   1.043   1.947   2.689  0.4460 -0.2143 -1.1048
  246DG     H23 5658   1.107   2.016   2.547  0.5354  2.0726 -0.1940
  247DG      C1 5659   0.035   2.699   2.544  0.3602  0.2953  0.3004
  247DG      C2 5660  -0.134   3.015   3.098  0.7003  0.6402 -0.3678
  247DG      H3 5661   0.024   2.696   2.436  0.4795 -0.8590  0.3020
  247DG      H4 5662  -0.031   2.620   2.579  0.9166 -0.7196 -0.8437
  247DG      H5 5663   0.131   2.659   2.579  0.7051 -0.1850 -1.1336
  247DG      H6 5664  -0.101   2.921   3.143  1.6748  0.9138 -0.4709
  247DG      H7 5665  -0.068   3.094   3.134  2.0784 -0.1387 -1.0887
  247DG      H8 5666  -0.225   3.052   3.144  0.9392  0.8028 -0.0155
  247DG      O9 5667   0.000   2.828   2.590 -0.2625 -0.1162  0.2543
  247DG     O10 5668  -0.137   3.009   2.959  0.0672 -0.0434 -0.3282
  247DG     C11 5669   0.093   2.923   2.547 -0.4145 -0.0882  0.1096
  247DG     C12 5670  -0.143   3.144   2.902 -0.1012  0.2613 -0.1079
  247DG     H13 5671   0.103   2.927   2.439  0.8600 -2.7870  0.0527
  247DG     H14 5672   0.193   2.920   2.590 -0.2713  3.4787  0.3160
  247DG     H15 5673  -0.063   3.201   2.951 -1.7480  1.7348  0.9819
  247DG     H16 5674  -0.229   3.203   2.931 -1.0560 -0.1221 -2.0258
  247DG     C17 5675   0.031   3.058   2.578  0.2222 -0.1481  0.7042
  247DG     C18 5676  -0.112   3.149   2.749 -1.0270 -0.0241 -0.7426
  247DG     O19 5677  -0.006   3.061   2.713 -0.1194 -0.1672  0.3027
  247DG     H20 5678  -0.052   3.085   2.512 -0.2219 -1.3788  0.7439
  247DG     H21 5679   0.104   3.137   2.560 -0.4738  0.9443  2.4786
  247DG     H22 5680  -0.202   3.144   2.687 -2.2537  0.7313  0.8919
  247DG     H23 5681  -0.075   3.250   2.726  1.5941 -0.2826  1.7966
  248DG      C1 5682   5.353   4.641   5.000 -0.0719 -0.1111  0.1780
  248DG      C2 5683   4.982   4.794   4.421 -0.5106 -0.7332 -0.3023
  248DG      H3 5684   5.454   4.608   5.026  0.3479 -0.4080 -1.6537
  248DG      H4 5685   5.290   4.572   5.055 -0.2707 -0.0078  0.0790
  248DG      H5 5686   5.335   4.740   5.041 -1.4245  1.0359 -2.8761
  248DG      H6 5687   4.919   4.865   4.474  1.0036  1.1303 -0.8840
  248DG      H7 5688   4.982   4.820   4.315  0.5062 -3.4854 -1.0839
  248DG      H8 5689   4.931   4.698   4.424 -0.7486 -0.6141 -0.4986
  248DG      O9 5690   5.323   4.666   4.862 -0.2800  0.1222 -0.3412
  248DG     O10 5691   5.110   4.792   4.474 -0.2128 -0.2951 -0.3653
  248DG     C11 5692   5.310   4.540   4.790  0.4741  0.1089 -0.1505
  248DG     C12 5693   5.194   4.713   4.400  0.0972  0.0837 -0.1023
  248DG     H13 5694   5.214   4.496   4.815 -0.0135 -0.1965 -2.3972
  248DG     H14 5695   5.384   4.471   4.832  0.0090 -1.4255 -1.7695
  248DG     H15 5696   5.206   4.744   4.296 -1.8249  3.3494  0.5182
  248DG     H16 5697   5.160   4.609   4.397  2.4815 -0.8231  1.2233
  248DG     C17 5698   5.326   4.559   4.637  0.5282  0.3502  0.1276
  248DG     C18 5699   5.333   4.728   4.468 -0.2645  0.5484  0.5542
  248DG     O19 5700   5.330   4.699   4.609 -0.6443 -0.0921 -0.0106
  248DG     H20 5701   5.244   4.511   4.585  0.9486 -0.7499  0.4592
  248DG     H21 5702   5.417   4.513   4.598  1.5496  1.8574  0.6286
  248DG     H22 5703   5.413   4.673   4.417 -0.5599  1.8049 -1.3702
  248DG     H23 5704   5.358   4.832   4.447 -0.0455  0.6944  1.4975
  249DG      C1 5705   4.892   2.828   3.230  0.1868 -0.7681  0.2039
  249DG      C2 5706   4.853   2.700   3.890  0.1738  1.6255  1.0420
  249DG      H3 5707   4.923   2.931   3.242 -0.5994 -0.0434 -3.0536
  249DG      H4 5708   4.787   2.833   3.201  0.6891 -0.7435 -1.7399
  249DG      H5 5709   4.939   2.789   3.139  0.8651 -2.7001  1.3261
  249DG      H6 5710   4.937   2.769   3.891  1.1256  0.5835 -1.0433
  249DG      H7 5711   4.757   2.745   3.918  0.5456  1.6765  2.3023
  249DG      H8 5712   4.870   2.626   3.968 -3.6583 -0.2296  0.3896
  249DG      O9 5713   4.902   2.739   3.339  0.4218 -0.2310 -0.4192
  249DG     O10 5714   4.848   2.622   3.772  0.6468  0.3629  0.2168
  249DG     C11 5715   4.883   2.605   3.291 -0.1070  0.8485  0.1652
  249DG     C12 5716   4.735   2.550   3.757  0.8357  0.1665 -0.0571
  249DG     H13 5717   4.963   2.570   3.226 -1.4875 -0.9705 -0.6359
  249DG     H14 5718   4.800   2.593   3.222  0.6221 -1.6031 -0.3805
  249DG     H15 5719   4.641   2.606   3.748 -1.0469 -2.6958  0.3481
  249DG     H16 5720   4.722   2.484   3.843  0.4455  0.3431  0.0218
  249DG     C17 5721   4.866   2.502   3.409  0.6784 -0.0336  0.3199
  249DG     C18 5722   4.760   2.463   3.627 -0.2039 -0.0059  0.2489
  249DG     O19 5723   4.783   2.544   3.516 -0.6035 -0.2170  0.4168
  249DG     H20 5724   4.964   2.481   3.454  0.3343 -0.3678  0.9280
  249DG     H21 5725   4.825   2.416   3.357  1.1860  0.1672 -0.4233
  249DG     H22 5726   4.848   2.401   3.644 -0.7001 -1.1098 -1.0543
  249DG     H23 5727   4.682   2.390   3.605  0.1797  0.0568 -1.3943
  250DG      C1 5728   4.376   2.161   0.275  0.2719  0.1711 -0.1201
  250DG      C2 5729   4.635   2.279   0.004 -0.2168 -0.4789 -0.6669
  250DG      H3 5730   4.338   2.198   0.179  1.9702  2.3180 -0.0456
  250DG      H4 5731   4.293   2.148   0.345 -0.6881  2.0609 -0.8177
  250DG      H5 5732   4.434   2.070   0.262  0.2595  0.0943  0.3582
  250DG      H6 5733   4.664   2.174   0.003 -0.3611 -0.5176 -0.8076
  250DG      H7 5734   4.533   2.283   0.042  0.3681 -0.9550  1.0514
  250DG      H8 5735   4.633   2.300  -0.103  1.0338 -0.1574 -0.6432
  250DG      O9 5736   4.469   2.252   0.320  0.2830 -0.0519  0.3853
  250DG     O10 5737   4.729   2.356   0.077 -0.4656 -0.1349 -0.0883
  250DG     C11 5738   4.415   2.373   0.372 -0.2571 -0.5323 -0.1133
  250DG     C12 5739   4.705   2.499   0.076  0.2209 -0.0654  0.7139
  250DG     H13 5740   4.356   2.342   0.459 -0.9903 -0.9800 -0.7603
  250DG     H14 5741   4.353   2.432   0.304 -1.0327  0.0066  1.0149
  250DG     H15 5742   4.676   2.536  -0.022 -1.4895  0.2352  1.2938
  250DG     H16 5743   4.802   2.548   0.088  0.7885 -0.5153 -1.5921
  250DG     C17 5744   4.533   2.469   0.409 -0.8374 -0.0654 -0.6743
  250DG     C18 5745   4.597   2.532   0.180 -0.4470  0.0849  0.2736
  250DG     O19 5746   4.630   2.470   0.306 -0.1173  0.0518 -0.7355
  250DG     H20 5747   4.596   2.428   0.489 -2.3400 -0.8460  0.1454
  250DG     H21 5748   4.493   2.567   0.435 -3.4439 -0.7900 -1.6446
  250DG     H22 5749   4.574   2.638   0.192  1.6663  0.8604 -1.7414
  250DG     H23 5750   4.504   2.487   0.144 -0.8013 -0.2239  1.5440
  251DG      C1 5751   3.088   2.714   3.800  0.3240  0.0400  0.0758
  251DG      C2 5752   2.863   3.091   3.084  0.1356 -0.2739  0.0158
  251DG      H3 5753   3.076   2.816   3.836 -3.2935  0.6766 -2.4055
  251DG      H4 5754   3.148   2.650   3.865  0.4304 -2.1588 -2.0500
  251DG      H5 5755   2.992   2.667   3.819  1.1680 -1.5523  0.6092
  251DG      H6 5756   2.810   3.183   3.107 -2.1934 -1.7100  0.8399
  251DG      H7 5757   2.942   3.121   3.016  0.0282  1.4358  0.6125
  251DG      H8 5758   2.787   3.036   3.028  1.3530 -3.1349  0.9948
  251DG      O9 5759   3.126   2.697   3.671 -0.9828 -0.1513  0.0845
  251DG     O10 5760   2.897   3.006   3.189 -0.1132 -0.0394 -0.0211
  251DG     C11 5761   3.029   2.716   3.576 -0.3583  0.0109  0.9246
  251DG     C12 5762   2.919   2.870   3.144 -0.2844  0.0363  0.6000
  251DG     H13 5763   2.974   2.806   3.603  0.2811 -0.0246  2.4689
  251DG     H14 5764   2.949   2.646   3.599  0.2409 -1.6630 -1.6711
  251DG     H15 5765   2.969   2.874   3.048  0.5545 -0.1565  1.0144
  251DG     H16 5766   2.836   2.799   3.143  0.1358 -0.4606 -0.7283
  251DG     C17 5767   3.089   2.726   3.432 -1.1962 -0.0371 -0.4636
  251DG     C18 5768   3.028   2.806   3.224 -0.4748 -0.0058 -0.3290
  251DG     O19 5769   2.982   2.766   3.346 -0.3477 -0.7170  0.5177
  251DG     H20 5770   3.137   2.632   3.404 -3.2864 -0.5224 -2.6700
  251DG     H21 5771   3.167   2.802   3.440 -0.8971 -0.4648  0.9871
  251DG     H22 5772   3.054   2.709   3.182  1.1653 -0.9937  2.6560
  251DG     H23 5773   3.115   2.870   3.233 -1.5356  1.7703 -1.9386
  252DG      C1 5774   4.270   2.026   1.633 -0.4187  0.2950  0.1931
  252DG      C2 5775   4.415   2.242   1.076 -0.8062 -0.1645 -0.2415
  252DG      H3 5776   4.268   2.019   1.742 -2.0711 -2.3301  0.0797
  252DG      H4 5777   4.349   1.968   1.586  0.8922  0.0631  2.5080
  252DG      H5 5778   4.186   1.977   1.583  0.7698  0.8015 -2.4985
  252DG      H6 5779   4.319   2.198   1.051 -0.2465 -1.0624 -0.8695
  252DG      H7 5780   4.437   2.306   0.991  3.1226 -1.0395 -0.0611
  252DG      H8 5781   4.491   2.164   1.086  1.5141  1.8839 -0.8549
  252DG      O9 5782   4.282   2.149   1.582 -0.1307  0.5389  0.2218
  252DG     O10 5783   4.412   2.319   1.193  0.1317 -0.0881  0.0750
  252DG     C11 5784   4.379   2.217   1.659 -0.3184 -0.1561  0.3955
  252DG     C12 5785   4.534   2.379   1.238 -0.0320  0.2496 -0.6428
  252DG     H13 5786   4.469   2.161   1.684 -0.0417  0.5607  1.0406
  252DG     H14 5787   4.329   2.234   1.754  0.7542  0.5444  0.8432
  252DG     H15 5788   4.562   2.463   1.175  2.1509  1.3024  1.5516
  252DG     H16 5789   4.613   2.303   1.248  0.1576  0.4271 -0.7814
  252DG     C17 5790   4.429   2.339   1.584  0.0738 -0.1135 -0.6144
  252DG     C18 5791   4.507   2.427   1.384  0.2357 -0.2638 -0.2791
  252DG     O19 5792   4.462   2.311   1.456  0.2388 -0.1845  0.2389
  252DG     H20 5793   4.508   2.386   1.643 -0.7851 -0.3085  0.7568
  252DG     H21 5794   4.361   2.424   1.576  0.7157  0.4027 -0.6884
  252DG     H22 5795   4.593   2.480   1.424  0.3798 -0.0198 -0.9016
  252DG     H23 5796   4.424   2.496   1.370  0.3313  0.2149  1.3615
  253DG      C1 5797   2.070   4.559   2.879 -0.3132 -0.5179 -0.2332
  253DG      C2 5798   1.866   4.708   2.234 -0.6469  0.1878  0.3104
  253DG      H3 5799   2.155   4.564   2.946  1.2973 -1.8187 -2.0530
  253DG      H4 5800   2.073   4.460   2.835  1.6235 -0.7156  0.2570
  253DG      H5 5801   1.973   4.566   2.928 -0.2773 -0.9846 -0.0924
  253DG      H6 5802   1.765   4.721   2.271 -0.1240  1.6695  1.3153
  253DG      H7 5803   1.878   4.781   2.154 -3.8833  0.3519 -0.1374
  253DG      H8 5804   1.883   4.613   2.183 -1.2890 -0.9821  2.2107
  253DG      O9 5805   2.106   4.652   2.784 -0.4836 -0.8073 -0.0075
  253DG     O10 5806   1.966   4.737   2.332 -0.2592  0.3090 -0.2150
  253DG     C11 5807   2.089   4.782   2.832  0.2310  0.0606 -0.2901
  253DG     C12 5808   1.961   4.870   2.379  0.5045  0.6040  1.0077
  253DG     H13 5809   2.160   4.801   2.913 -0.5129  1.0365  0.1564
  253DG     H14 5810   1.992   4.798   2.878  1.4545  1.2049  2.0804
  253DG     H15 5811   1.863   4.882   2.425 -0.6906  0.1582 -1.3225
  253DG     H16 5812   1.983   4.944   2.303  0.3569 -0.0526  0.3163
  253DG     C17 5813   2.104   4.873   2.714 -0.3985  0.4713  0.4849
  253DG     C18 5814   2.064   4.896   2.483 -0.3077  0.0940 -0.1902
  253DG     O19 5815   2.028   4.823   2.602 -0.1028 -0.0427  0.1315
  253DG     H20 5816   2.206   4.893   2.681 -0.1139 -2.4944 -0.7344
  253DG     H21 5817   2.052   4.965   2.741 -0.0848  1.4537 -1.9758
  253DG     H22 5818   2.159   4.866   2.439 -1.2284 -1.7432 -0.9965
  253DG     H23 5819   2.063   5.004   2.501  1.5806  0.1450 -0.1465
  254DG      C1 5820   2.726   1.595   0.164 -0.3821 -0.0464  0.1896
  254DG      C2 5821   2.191   1.473   0.704 -0.1080  0.5599 -0.2574
  254DG      H3 5822   2.835   1.590   0.173 -0.5514 -0.6936  2.5827
  254DG      H4 5823   2.703   1.701   0.159  1.6299  0.7042  3.6669
  254DG      H5 5824   2.692   1.547   0.072  0.0394  1.2616 -0.6789
  254DG      H6 5825   2.124   1.554   0.734 -2.5645 -1.9056  1.3002
  254DG      H7 5826   2.168   1.449   0.600 -0.4652  0.3936 -0.1417
  254DG      H8 5827   2.159   1.388   0.763 -2.8867  1.7007  0.0363
  254DG      O9 5828   2.667   1.541   0.277 -0.6126  0.1860  0.4449
  254DG     O10 5829   2.332   1.504   0.728  0.2863 -0.3401  0.2987
  254DG     C11 5830   2.683   1.613   0.396  0.0922  0.7247  0.0736
  254DG     C12 5831   2.396   1.390   0.682  0.2619  0.1247  0.0851
  254DG     H13 5832   2.610   1.690   0.419  0.7293  0.8988  1.5927
  254DG     H14 5833   2.783   1.655   0.396 -0.0121  1.0483  1.9344
  254DG     H15 5834   2.370   1.352   0.584  0.7098  1.9856 -0.7982
  254DG     H16 5835   2.380   1.312   0.757 -2.7576  0.2095 -0.3669
  254DG     C17 5836   2.702   1.524   0.520  0.3459  0.1570  0.5683
  254DG     C18 5837   2.545   1.422   0.673 -0.5010  0.5903  0.3439
  254DG     O19 5838   2.565   1.501   0.558 -0.0429 -1.0825  0.1726
  254DG     H20 5839   2.769   1.565   0.595  0.0087 -1.9432  2.1167
  254DG     H21 5840   2.747   1.428   0.491 -3.0481 -1.8412  1.4193
  254DG     H22 5841   2.575   1.477   0.762 -0.5900  0.9991  0.1239
  254DG     H23 5842   2.598   1.329   0.655  1.8301  2.1232 -1.3642
  255DG      C1 5843   1.848   2.976   3.749 -0.2362 -0.3299  0.2389
  255DG      C2 5844   1.360   2.852   4.229 -0.6069  0.0957 -0.7442
  255DG      H3 5845   1.898   2.879   3.760  0.5512 -0.1110 -1.1502
  255DG      H4 5846   1.884   3.042   3.827  1.8354  1.1622 -1.8175
  255DG      H5 5847   1.877   3.020   3.653  1.2468  0.1302  0.8734
  255DG      H6 5848   1.260   2.894   4.237  0.7310  3.8396 -1.8071
  255DG      H7 5849   1.346   2.751   4.269  1.2486 -0.0823 -0.4677
  255DG      H8 5850   1.424   2.895   4.306 -0.6642 -2.2980  0.7444
  255DG      O9 5851   1.715   2.965   3.767 -0.5446 -0.5417 -0.0555
  255DG     O10 5852   1.399   2.871   4.087 -0.0816  0.5849  0.0293
  255DG     C11 5853   1.655   2.866   3.679 -0.1430  1.0135 -0.4299
  255DG     C12 5854   1.319   2.791   3.998  0.3370  0.4379  0.7150
  255DG     H13 5855   1.684   2.764   3.703 -0.8889  1.2954  1.9235
  255DG     H14 5856   1.682   2.884   3.575  0.3351 -0.1241 -0.5124
  255DG     H15 5857   1.213   2.805   4.017  0.1456 -0.4021  0.3310
  255DG     H16 5858   1.334   2.683   4.006 -1.0397  0.2979  1.6565
  255DG     C17 5859   1.503   2.867   3.698  0.5561 -0.2928  0.3766
  255DG     C18 5860   1.334   2.836   3.856  0.0065  0.1544  0.0143
  255DG     O19 5861   1.473   2.837   3.834  0.0822 -0.2812 -0.0144
  255DG     H20 5862   1.463   2.784   3.640 -2.1310  1.5436 -0.5916
  255DG     H21 5863   1.460   2.962   3.664  3.2145  1.0409  0.4400
  255DG     H22 5864   1.281   2.759   3.801  0.9604 -0.6859  0.2522
  255DG     H23 5865   1.282   2.931   3.842  2.3996  2.0974  2.9378
  256DG      C1 5866   3.259   1.872   1.828 -0.6115 -0.5392 -0.4433
  256DG      C2 5867   2.762   1.558   2.193  0.8024  0.4075  0.2031
  256DG      H3 5868   3.359   1.830   1.826  0.2794  1.4690 -2.2951
  256DG      H4 5869   3.253   1.945   1.910  1.0492  2.3287 -2.6626
  256DG      H5 5870   3.238   1.925   1.735 -1.1156  1.6750  0.8601
  256DG      H6 5871   2.656   1.580   2.183  0.3887 -1.2428  0.7613
  256DG      H7 5872   2.774   1.464   2.246  1.1499 -0.1370 -0.8150
  256DG      H8 5873   2.805   1.634   2.259 -1.7490 -0.7017  3.3794
  256DG      O9 5874   3.165   1.767   1.850  0.3946  0.2873 -0.1094
  256DG     O10 5875   2.842   1.556   2.080  0.2827 -0.0116  0.0013
  256DG     C11 5876   3.139   1.691   1.738  0.2598  0.0575  0.4147
  256DG     C12 5877   2.799   1.454   1.989 -0.2159  0.5611 -0.8022
  256DG     H13 5878   3.230   1.682   1.679 -0.0107 -0.9088  0.1226
  256DG     H14 5879   3.059   1.738   1.681 -0.5654 -0.6972  0.9263
  256DG     H15 5880   2.702   1.470   1.943 -1.1107  0.6681  1.0108
  256DG     H16 5881   2.776   1.360   2.039 -0.4957  2.0910  2.1774
  256DG     C17 5882   3.095   1.551   1.779  0.2773 -0.0495 -0.1898
  256DG     C18 5883   2.908   1.436   1.876  1.1239  0.1950 -0.3753
  256DG     O19 5884   2.973   1.563   1.855  0.0885  0.5369 -0.0813
  256DG     H20 5885   3.172   1.494   1.831  0.9519 -0.4952 -1.6337
  256DG     H21 5886   3.068   1.506   1.683 -0.5533  2.0513 -0.9874
  256DG     H22 5887   2.977   1.354   1.894 -0.0718 -0.8910 -0.6409
  256DG     H23 5888   2.861   1.416   1.779  0.8442 -0.0699 -0.1878
  257DG      C1 5889   2.589   2.399   2.732  0.2748  0.0637 -0.3999
  257DG      C2 5890   2.681   1.914   3.138 -0.3865  0.2117 -0.6687
  257DG      H3 5891   2.691   2.424   2.761 -0.0197 -0.9462  1.6429
  257DG      H4 5892   2.526   2.480   2.694  1.0511  0.0219 -1.8567
  257DG      H5 5893   2.603   2.328   2.651 -0.4157 -1.0160  0.4002
  257DG      H6 5894   2.671   1.868   3.040 -0.9140 -2.2511  0.4464
  257DG      H7 5895   2.781   1.952   3.157 -0.9211  1.5334 -0.4310
  257DG      H8 5896   2.657   1.840   3.215  1.9635  0.8111  0.7536
  257DG      O9 5897   2.523   2.346   2.850 -0.1475  0.0234  0.1522
  257DG     O10 5898   2.588   2.020   3.128  0.2196  0.0666 -1.3458
  257DG     C11 5899   2.486   2.442   2.948  0.2522 -0.1701 -0.1780
  257DG     C12 5900   2.574   2.096   3.244 -0.7596 -0.2390  0.2040
  257DG     H13 5901   2.419   2.514   2.901  0.6649  1.2694  1.3342
  257DG     H14 5902   2.575   2.496   2.980  0.4513 -0.2202 -0.6373
  257DG     H15 5903   2.677   2.131   3.259 -1.0667  1.4966 -1.3456
  257DG     H16 5904   2.553   2.043   3.337 -0.7753  0.7542  0.7834
  257DG     C17 5905   2.429   2.369   3.066  0.7260  0.2901 -0.2416
  257DG     C18 5906   2.466   2.194   3.226  0.6041  0.3707  0.4617
  257DG     O19 5907   2.509   2.263   3.113 -0.8959  0.0879  0.1203
  257DG     H20 5908   2.336   2.327   3.027  1.8642 -0.1179 -2.6583
  257DG     H21 5909   2.397   2.424   3.155  2.0265 -0.6764  0.8699
  257DG     H22 5910   2.371   2.142   3.214  0.5069  0.2019  1.8606
  257DG     H23 5911   2.469   2.266   3.307 -1.8831  1.3261 -0.2194
  258DG      C1 5912   2.115   4.517   4.953  0.2785 -0.1265 -0.1179
  258DG      C2 5913   1.511   4.365   4.729  0.1043 -0.2093  0.0579
  258DG      H3 5914   2.117   4.420   4.904 -0.1009 -0.3612  0.3239
  258DG      H4 5915   2.197   4.528   5.024 -0.6961  0.5501  0.9361
  258DG      H5 5916   2.138   4.591   4.876 -1.4445  0.3971 -0.1793
  258DG      H6 5917   1.428   4.325   4.786 -0.1766 -0.0711 -0.2517
  258DG      H7 5918   1.477   4.427   4.646  1.8222  0.5239 -0.1465
  258DG      H8 5919   1.566   4.280   4.688  1.3913  1.0518 -0.9623
  258DG      O9 5920   1.978   4.524   5.004 -0.2732  0.1612  0.2653
  258DG     O10 5921   1.591   4.432   4.828  0.0617 -0.2181 -0.6187
  258DG     C11 5922   1.936   4.650   5.051  0.8186  0.2224 -0.0529
  258DG     C12 5923   1.506   4.505   4.916  0.3968 -0.1088  0.1475
  258DG     H13 5924   1.921   4.721   4.969  0.7186 -0.3141 -0.5076
  258DG     H14 5925   2.006   4.690   5.125  0.0111 -0.4586  1.1064
  258DG     H15 5926   1.407   4.465   4.941 -0.3369  1.2117 -0.5192
  258DG     H16 5927   1.480   4.596   4.861 -0.9748  0.0919  1.0601
  258DG     C17 5928   1.795   4.622   5.107  0.0972 -0.4786  0.1326
  258DG     C18 5929   1.580   4.535   5.039  0.6090  0.4962  0.0222
  258DG     O19 5930   1.714   4.578   4.999  0.1210 -0.3542 -0.4632
  258DG     H20 5931   1.751   4.716   5.141  1.1555 -0.1500  0.6283
  258DG     H21 5932   1.795   4.549   5.187 -4.4177  1.0606  1.8374
  258DG     H22 5933   1.529   4.605   5.106  0.4982 -0.3266  0.8088
  258DG     H23 5934   1.588   4.437   5.086 -0.9178 -0.2145 -1.0975
  259DG      C1 5935   1.716   4.856   1.837  0.8952  0.0039  0.5050
  259DG      C2 5936   1.234   5.328   1.729  0.0793  0.4297 -0.2782
  259DG      H3 5937   1.680   4.823   1.740  0.9556 -0.7979  0.7492
  259DG      H4 5938   1.728   4.763   1.893 -0.6393 -0.6579 -0.1886
  259DG      H5 5939   1.813   4.905   1.833  1.3659 -0.7270  2.1754
  259DG      H6 5940   1.178   5.249   1.679  0.6381 -0.7015  0.8167
  259DG      H7 5941   1.179   5.421   1.745 -0.0217  0.2792  0.2558
  259DG      H8 5942   1.324   5.347   1.670  0.4948  1.4199  0.6365
  259DG      O9 5943   1.615   4.935   1.900 -0.0592  0.2988 -0.7423
  259DG     O10 5944   1.262   5.263   1.843  0.0177  0.5544 -0.3358
  259DG     C11 5945   1.676   4.996   2.010  0.4404 -0.2279 -0.0198
  259DG     C12 5946   1.352   5.338   1.923 -0.9182 -0.1431  0.4403
  259DG     H13 5947   1.758   5.062   1.980 -0.1640  1.2275  1.3348
  259DG     H14 5948   1.720   4.917   2.071  0.8181 -1.6609 -2.0689
  259DG     H15 5949   1.305   5.421   1.976 -0.3619  1.0547 -0.8812
  259DG     H16 5950   1.445   5.373   1.877 -0.2534 -1.0756  1.0292
  259DG     C17 5951   1.565   5.076   2.078 -0.2968  0.4878  0.6615
  259DG     C18 5952   1.398   5.247   2.034 -0.3049  0.0953 -0.2900
  259DG     O19 5953   1.509   5.168   1.984 -0.4541  0.4957  0.2145
  259DG     H20 5954   1.602   5.121   2.170  2.2492  0.0155 -0.0544
  259DG     H21 5955   1.492   5.000   2.104  0.7921 -0.7212  0.2908
  259DG     H22 5956   1.422   5.295   2.129 -2.2635 -2.1534  1.4629
  259DG     H23 5957   1.334   5.166   2.070 -0.2015  0.8724  1.7729
  260DG      C1 5958   2.079   0.595   0.645 -0.1140  0.0741  0.2945
  260DG      C2 5959   1.342   0.821   0.889 -0.0308 -0.0671 -0.4913
  260DG      H3 5960   2.045   0.554   0.550 -1.7697 -0.5328  1.1100
  260DG      H4 5961   2.186   0.593   0.667 -0.7475  0.3149  3.9921
  260DG      H5 5962   2.058   0.698   0.615 -0.6258 -0.4110 -1.0940
  260DG      H6 5963   1.311   0.791   0.789 -1.3438  0.9508 -0.4237
  260DG      H7 5964   1.262   0.819   0.963 -0.9620  1.0869 -1.4230
  260DG      H8 5965   1.357   0.926   0.864  0.3120 -0.1389 -0.5984
  260DG      O9 5966   2.010   0.536   0.752  0.1182  0.4233  0.1316
  260DG     O10 5967   1.464   0.753   0.933 -0.0778 -0.3431 -0.5376
  260DG     C11 5968   1.863   0.556   0.749  0.1539  0.3519  0.1865
  260DG     C12 5969   1.442   0.616   0.961  0.1178  0.3120  0.1035
  260DG     H13 5970   1.815   0.521   0.658 -0.1953 -0.3192  0.6209
  260DG     H14 5971   1.839   0.662   0.738 -0.6158  0.2086  0.3877
  260DG     H15 5972   1.379   0.578   0.881 -0.4379  1.0750  0.1702
  260DG     H16 5973   1.378   0.598   1.047  0.4520 -2.9498 -0.1913
  260DG     C17 5974   1.795   0.506   0.872  0.5906 -0.6093 -0.2764
  260DG     C18 5975   1.573   0.540   0.970  0.2507  0.1206 -0.8970
  260DG     O19 5976   1.663   0.557   0.864 -0.1425  0.8095 -0.2760
  260DG     H20 5977   1.848   0.550   0.957  0.8608 -2.1121  0.3655
  260DG     H21 5978   1.796   0.397   0.878  0.9713 -0.6589 -1.0025
  260DG     H22 5979   1.628   0.564   1.060 -0.2454 -1.4685 -0.1336
  260DG     H23 5980   1.549   0.436   0.994 -1.6966  0.2482 -2.0216
  261DG      C1 5981   0.041   0.946   4.354 -0.5144  0.3775  0.8714
  261DG      C2 5982   0.609   1.371   4.191  0.0744 -0.2074 -0.4004
  261DG      H3 5983  -0.029   0.871   4.318 -0.6705  1.3968 -1.0702
  261DG      H4 5984   0.042   0.959   4.463 -0.4485 -0.2008  0.9425
  261DG      H5 5985   0.137   0.906   4.322  0.2432  2.5198  0.2387
  261DG      H6 5986   0.613   1.441   4.274 -0.8085  0.3417 -0.8078
  261DG      H7 5987   0.682   1.292   4.209  0.0088 -0.0859  0.4126
  261DG      H8 5988   0.639   1.427   4.101  0.2332 -0.8464 -0.7483
  261DG      O9 5989   0.034   1.077   4.292  0.3254  0.1880  0.4683
  261DG     O10 5990   0.490   1.311   4.162  0.7057  0.4521 -0.2555
  261DG     C11 5991   0.030   1.074   4.142  0.3840 -0.8483  0.0657
  261DG     C12 5992   0.419   1.269   4.280 -0.5713  0.0016  1.1253
  261DG     H13 5993  -0.036   1.160   4.130  2.6215  1.3548  2.3835
  261DG     H14 5994  -0.024   0.991   4.096 -0.8250 -0.1337  0.1541
  261DG     H15 5995   0.374   1.358   4.325  0.2917  1.0500 -0.0178
  261DG     H16 5996   0.490   1.229   4.351  1.5125  0.0917 -0.7988
  261DG     C17 5997   0.173   1.094   4.077  0.1558  0.7714 -0.1753
  261DG     C18 5998   0.320   1.155   4.240 -0.7758 -0.2458 -0.3166
  261DG     O19 5999   0.249   1.198   4.119  0.5376  0.2224 -0.1197
  261DG     H20 6000   0.167   1.117   3.971  0.6808 -0.4668 -0.4902
  261DG     H21 6001   0.223   0.998   4.077 -3.4635 -1.3330  0.8262
  261DG     H22 6002   0.389   1.075   4.216  2.1125  1.4304  1.8317
  261DG     H23 6003   0.256   1.127   4.324 -0.9195  0.2584 -0.2538
  262DG      C1 6004   2.434   4.427   3.422  0.6775  0.1275 -0.2071
  262DG      C2 6005   2.565   4.941   3.802 -0.1494  0.3513 -0.2457
  262DG      H3 6006   2.353   4.408   3.492  0.7867  0.4952  0.0193
  262DG      H4 6007   2.481   4.331   3.402  1.4250 -0.0046  1.9125
  262DG      H5 6008   2.384   4.449   3.328 -1.5387 -1.6417  0.4426
  262DG      H6 6009   2.621   5.028   3.835  2.0312 -0.4679 -1.5667
  262DG      H7 6010   2.492   4.969   3.726 -0.6197  1.8180  0.7179
  262DG      H8 6011   2.503   4.908   3.885  1.5431 -2.9318 -0.1009
  262DG      O9 6012   2.529   4.523   3.462  0.0059  0.2865 -0.5303
  262DG     O10 6013   2.649   4.836   3.765  0.1688 -0.4317 -0.2570
  262DG     C11 6014   2.615   4.560   3.359  0.0174 -0.1625  0.3608
  262DG     C12 6015   2.753   4.876   3.685  0.0939 -0.0450 -0.4461
  262DG     H13 6016   2.560   4.624   3.289  0.4205  0.7187  0.8457
  262DG     H14 6017   2.643   4.470   3.304 -0.4012 -0.5321  0.7490
  262DG     H15 6018   2.831   4.916   3.750 -2.3148  3.0922  0.7553
  262DG     H16 6019   2.713   4.956   3.623  0.2689 -0.3668 -0.9823
  262DG     C17 6020   2.738   4.620   3.414  0.4255  0.8475 -0.0664
  262DG     C18 6021   2.817   4.767   3.596 -0.5070 -0.3235  0.0396
  262DG     O19 6022   2.706   4.715   3.518 -0.2376 -0.4827  0.6803
  262DG     H20 6023   2.811   4.665   3.347 -2.3002  3.0160 -1.8166
  262DG     H21 6024   2.793   4.539   3.463  0.7063  0.3587 -1.1434
  262DG     H22 6025   2.888   4.808   3.524 -0.1159 -0.0554  0.5660
  262DG     H23 6026   2.870   4.688   3.648  2.9585  1.7545  0.0035
  263DG      C1 6027   3.346   1.222   3.503 -0.0291  0.3542  0.4725
  263DG      C2 6028   2.783   1.560   3.023  0.3415  0.5888 -0.4363
  263DG      H3 6029   3.308   1.145   3.570  0.0421  0.4581  0.6329
  263DG      H4 6030   3.411   1.287   3.563 -0.4198  0.3666  0.8860
  263DG      H5 6031   3.400   1.194   3.413 -1.0351 -0.7176  0.1860
  263DG      H6 6032   2.811   1.631   2.945  0.6368 -1.6057 -2.4601
  263DG      H7 6033   2.819   1.462   2.990  0.5523 -0.2075  1.9925
  263DG      H8 6034   2.675   1.565   3.025  0.3112 -0.0477 -0.2586
  263DG      O9 6035   3.228   1.287   3.456 -0.3261 -0.0580 -0.1040
  263DG     O10 6036   2.826   1.587   3.155 -0.5291 -0.0494  0.4260
  263DG     C11 6037   3.202   1.415   3.503 -0.1548 -0.8165 -0.5385
  263DG     C12 6038   2.972   1.583   3.150  0.3116  0.9796  0.2405
  263DG     H13 6039   3.279   1.487   3.476 -0.2748 -0.2352  0.5938
  263DG     H14 6040   3.226   1.406   3.609 -1.4361  1.3776  0.0137
  263DG     H15 6041   3.007   1.677   3.109  0.4778  1.5299  1.6227
  263DG     H16 6042   3.012   1.500   3.091 -0.6903 -0.2695  1.2500
  263DG     C17 6043   3.056   1.447   3.483 -0.0118  0.2885 -0.5538
  263DG     C18 6044   3.035   1.576   3.295 -0.3101  0.7751  0.2469
  263DG     O19 6045   3.012   1.448   3.350 -0.1238  0.4931  0.4599
  263DG     H20 6046   3.023   1.541   3.525 -0.9062  0.0059 -0.6112
  263DG     H21 6047   2.997   1.372   3.536 -0.2208 -0.4134 -1.7282
  263DG     H22 6048   3.143   1.586   3.284 -0.5145  1.3375 -1.4375
  263DG     H23 6049   2.989   1.656   3.351 -1.2598  1.6169 -1.6690
  264DG      C1 6050   5.323   0.080   1.523 -0.4557  0.0203  1.0177
  264DG      C2 6051   5.545   0.654   1.652 -0.1377 -0.2006  0.3099
  264DG      H3 6052   5.357   0.008   1.449  1.3065  1.7783  0.0171
  264DG      H4 6053   5.336   0.040   1.623  2.2373 -1.7963  0.0509
  264DG      H5 6054   5.400   0.156   1.512  0.0939 -0.6066  0.3792
  264DG      H6 6055   5.505   0.671   1.752 -0.2452  0.8276  0.1049
  264DG      H7 6056   5.638   0.711   1.647  0.8387 -1.2857  3.7711
  264DG      H8 6057   5.471   0.710   1.594 -0.1828 -1.1790 -0.6032
  264DG      O9 6058   5.186   0.108   1.492 -0.1578 -0.3764 -0.2313
  264DG     O10 6059   5.557   0.521   1.611 -0.2847  0.5865 -0.9502
  264DG     C11 6060   5.142   0.204   1.586 -0.0957  0.0614  1.1261
  264DG     C12 6061   5.508   0.427   1.705  0.3683  0.3110 -0.4328
  264DG     H13 6062   5.172   0.178   1.687  1.4908 -1.2370  0.3795
  264DG     H14 6063   5.034   0.201   1.583 -0.1328  0.2740  2.0670
  264DG     H15 6064   5.546   0.455   1.804  2.1377  0.1540 -1.0399
  264DG     H16 6065   5.557   0.333   1.681 -0.2167 -0.7583  2.1800
  264DG     C17 6066   5.191   0.349   1.552 -0.8111 -0.5094 -0.3028
  264DG     C18 6067   5.355   0.406   1.704 -0.9001  0.0312  0.2101
  264DG     O19 6068   5.326   0.368   1.571  0.2996 -0.3170  0.1673
  264DG     H20 6069   5.131   0.426   1.601  0.9577  1.3863 -0.9819
  264DG     H21 6070   5.171   0.361   1.445  0.3775  0.4581 -0.4353
  264DG     H22 6071   5.322   0.343   1.787 -0.8106  0.1132  0.3098
  264DG     H23 6072   5.305   0.500   1.728  0.9772  0.9756  0.6711
  265DG      C1 6073   5.116   4.523   5.371 -0.9449 -0.5121  0.7674
  265DG      C2 6074   5.870   4.084   5.482 -0.2174 -0.7913 -0.3871
  265DG      H3 6075   5.087   4.615   5.423 -0.6505  1.2412 -1.9837
  265DG      H4 6076   5.071   4.438   5.422 -0.1606 -0.8651  0.8791
  265DG      H5 6077   5.085   4.531   5.267  4.5004  2.3945 -1.0145
  265DG      H6 6078   5.785   4.020   5.506  0.2178 -1.0764  0.4167
  265DG      H7 6079   5.897   4.065   5.378  3.6388 -1.2275  0.5598
  265DG      H8 6080   5.952   4.057   5.548 -1.1410 -0.5321  0.9095
  265DG      O9 6081   5.253   4.502   5.373 -0.2285  0.5259  0.1606
  265DG     O10 6082   5.827   4.209   5.503  0.6658  0.1291 -0.4047
  265DG     C11 6083   5.323   4.497   5.495  0.2896 -0.9799 -0.4043
  265DG     C12 6084   5.710   4.247   5.433  0.4554 -0.0472  0.0762
  265DG     H13 6085   5.309   4.401   5.546 -0.8570  0.3342  1.9563
  265DG     H14 6086   5.283   4.576   5.559  2.3324  0.5843 -0.9879
  265DG     H15 6087   5.641   4.170   5.468  1.6348 -2.2305 -2.0391
  265DG     H16 6088   5.714   4.262   5.325  0.8562  0.3212  0.1358
  265DG     C17 6089   5.471   4.521   5.481 -0.2203 -0.9088  0.0846
  265DG     C18 6090   5.660   4.381   5.485 -0.2816 -0.4318  0.1788
  265DG     O19 6091   5.523   4.394   5.442  0.4383  0.1509  0.1122
  265DG     H20 6092   5.511   4.550   5.579  4.0724 -1.3199 -1.3399
  265DG     H21 6093   5.500   4.594   5.406 -2.2185 -2.4667 -2.3607
  265DG     H22 6094   5.662   4.382   5.594  0.1161 -0.8400  0.1753
  265DG     H23 6095   5.719   4.463   5.442 -3.1281  1.4592 -0.4436
  266DG      C1 6096   4.903   3.809   0.064 -0.5517  1.0687 -0.0614
  266DG      C2 6097   4.802   4.197   0.568  0.0304 -0.1277  0.4689
  266DG      H3 6098   4.932   3.912   0.045 -0.1105  1.5832  2.9549
  266DG      H4 6099   4.899   3.745  -0.024  1.1181 -1.1994  1.4062
  266DG      H5 6100   4.983   3.754   0.114 -0.1927 -1.5335 -3.1261
  266DG      H6 6101   4.818   4.282   0.501 -0.9001  1.1819  1.8318
  266DG      H7 6102   4.731   4.239   0.639  2.4705 -0.2154  3.1465
  266DG      H8 6103   4.896   4.167   0.614  0.4827 -0.3635 -0.5782
  266DG      O9 6104   4.792   3.818   0.148  0.6320 -0.3264 -0.0489
  266DG     O10 6105   4.744   4.086   0.498 -0.6280 -0.4058  0.3558
  266DG     C11 6106   4.729   3.706   0.201 -0.2851 -0.1626 -0.0728
  266DG     C12 6107   4.730   3.972   0.584 -0.0262 -0.1615 -0.3852
  266DG     H13 6108   4.785   3.643   0.270 -1.1379 -0.8081  0.0418
  266DG     H14 6109   4.668   3.656   0.126  0.8931 -0.4391 -0.8754
  266DG     H15 6110   4.690   4.012   0.677  3.9590  1.0181  1.0001
  266DG     H16 6111   4.824   3.924   0.611  0.4258 -0.6881 -2.6103
  266DG     C17 6112   4.620   3.751   0.300  0.5506 -0.5323  0.1424
  266DG     C18 6113   4.633   3.876   0.507  0.4237 -0.0476  0.2314
  266DG     O19 6114   4.692   3.832   0.389 -0.4230  0.5813 -0.4262
  266DG     H20 6115   4.566   3.666   0.340  0.0744 -0.2241  0.1712
  266DG     H21 6116   4.543   3.806   0.245 -0.4851 -1.1390  0.9568
  266DG     H22 6117   4.609   3.786   0.564  2.3773 -2.4062 -2.3999
  266DG     H23 6118   4.535   3.919   0.486  0.5459  0.7115  1.1611
  267DG      C1 6119   4.042   3.355   0.878  0.3946 -0.9987 -0.6508
  267DG      C2 6120   4.637   3.371   0.660 -0.2734  0.7934  0.2573
  267DG      H3 6121   3.947   3.356   0.932 -0.5806  0.9776 -2.2963
  267DG      H4 6122   4.065   3.251   0.857  0.1313 -0.8211 -1.8561
  267DG      H5 6123   4.026   3.402   0.781 -0.7959 -0.1848 -0.0832
  267DG      H6 6124   4.592   3.273   0.647 -1.3291  0.5772  4.2864
  267DG      H7 6125   4.633   3.429   0.567  1.1301 -1.1879 -1.1136
  267DG      H8 6126   4.743   3.358   0.680  0.1858  2.9450 -0.4678
  267DG      O9 6127   4.153   3.423   0.940 -0.1030  0.8724 -0.0908
  267DG     O10 6128   4.563   3.437   0.762  0.1645  0.4261  0.0435
  267DG     C11 6129   4.145   3.564   0.949  0.4497 -0.3665  0.1024
  267DG     C12 6130   4.577   3.576   0.763  0.0517  0.5087  0.0305
  267DG     H13 6131   4.068   3.591   1.022  0.0857 -0.4394 -0.2519
  267DG     H14 6132   4.109   3.603   0.854 -2.8878  1.7672  2.0417
  267DG     H15 6133   4.542   3.615   0.668  3.0135 -2.0845 -2.3331
  267DG     H16 6134   4.683   3.600   0.767  0.6836 -1.7910 -1.2718
  267DG     C17 6135   4.281   3.634   0.979 -0.6497  0.6783 -0.5890
  267DG     C18 6136   4.491   3.631   0.876  0.0063  0.2900  0.0246
  267DG     O19 6137   4.371   3.571   0.886  0.0934 -0.6827  0.5758
  267DG     H20 6138   4.306   3.620   1.084 -2.4445 -0.4363 -0.2736
  267DG     H21 6139   4.270   3.741   0.961  0.0825  0.6026 -1.6257
  267DG     H22 6140   4.534   3.614   0.975 -1.8626  0.1819  0.8439
  267DG     H23 6141   4.474   3.738   0.869  0.9253  0.5029  0.8164
  268DG      C1 6142   0.400   0.977   5.480  0.1657  0.0729  0.0872
  268DG      C2 6143   0.748   0.302   5.492 -0.4527 -0.0682 -0.0841
  268DG      H3 6144   0.313   1.031   5.518 -0.8207 -0.9981 -0.6089
  268DG      H4 6145   0.373   0.946   5.379  3.8167  1.3672 -1.4570
  268DG      H5 6146   0.486   1.044   5.470 -1.0454  1.8304  0.8435
  268DG      H6 6147   0.807   0.240   5.560  0.2764 -1.6168 -2.0195
  268DG      H7 6148   0.700   0.223   5.433  0.0909  0.3335 -1.0769
  268DG      H8 6149   0.818   0.356   5.429  0.4533 -1.6582 -0.5096
  268DG      O9 6150   0.426   0.853   5.544  0.3072  0.1752 -0.5683
  268DG     O10 6151   0.659   0.392   5.560  0.0570  0.2919  0.2664
  268DG     C11 6152   0.444   0.871   5.684 -0.9023  0.9018 -0.1064
  268DG     C12 6153   0.715   0.472   5.654  0.2219 -0.0141 -0.2562
  268DG     H13 6154   0.357   0.920   5.726 -0.3400  1.6124  0.2591
  268DG     H14 6155   0.525   0.938   5.713 -2.0486  2.3744 -0.1984
  268DG     H15 6156   0.786   0.548   5.623 -0.5134  0.6529 -0.3352
  268DG     H16 6157   0.778   0.407   5.715 -0.7187 -1.1765 -0.4839
  268DG     C17 6158   0.467   0.727   5.734 -0.2515 -0.5248 -0.1101
  268DG     C18 6159   0.613   0.553   5.735 -0.2199  0.5663 -0.4785
  268DG     O19 6160   0.572   0.669   5.671  0.2650 -0.3927 -0.1171
  268DG     H20 6161   0.388   0.653   5.726  0.2910 -1.0709 -0.5844
  268DG     H21 6162   0.493   0.736   5.839 -0.7987 -1.7028  0.1476
  268DG     H22 6163   0.535   0.478   5.751 -0.1182 -0.1029 -2.7432
  268DG     H23 6164   0.667   0.573   5.827  2.5865 -0.4695 -1.7796
  269DG      C1 6165   2.421   1.034   1.344 -0.2246  0.1026 -0.3020
  269DG      C2 6166   1.924   1.114   0.876 -0.3095  0.0620 -0.3872
  269DG      H3 6167   2.386   1.059   1.444  1.9421  0.4664  0.4031
  269DG      H4 6168   2.496   1.106   1.310  0.0916 -0.3138 -0.4934
  269DG      H5 6169   2.483   0.945   1.355  0.0792  0.2994 -0.4027
  269DG      H6 6170   1.873   1.172   0.953 -1.2024  0.5831 -1.3445
  269DG      H7 6171   2.001   1.189   0.857 -0.0974  0.5350  1.9900
  269DG      H8 6172   1.859   1.078   0.796 -1.5028 -1.9991  1.4179
  269DG      O9 6173   2.322   1.011   1.251  0.4522 -0.0728  0.2559
  269DG     O10 6174   1.981   1.004   0.935  0.1163  0.6838  0.3053
  269DG     C11 6175   2.218   0.912   1.278  0.3566  0.2540 -0.7007
  269DG     C12 6176   2.063   0.929   0.857  0.4067  0.3658 -0.0549
  269DG     H13 6177   2.158   0.934   1.366  1.7045 -1.6816  0.7788
  269DG     H14 6178   2.256   0.811   1.294  0.6709  0.3859 -0.5981
  269DG     H15 6179   2.144   0.988   0.813  0.6816 -0.8885 -1.3019
  269DG     H16 6180   2.010   0.878   0.776 -1.2210  0.4200  0.9459
  269DG     C17 6181   2.122   0.901   1.154  0.4980 -0.8417  0.7517
  269DG     C18 6182   2.125   0.809   0.930 -0.1332 -0.2787 -0.1745
  269DG     O19 6183   2.198   0.860   1.043  0.0722 -0.1897  0.2695
  269DG     H20 6184   2.058   0.989   1.147 -0.4601 -1.6378 -1.6509
  269DG     H21 6185   2.044   0.828   1.176 -1.7160  1.0509 -0.3566
  269DG     H22 6186   2.043   0.746   0.967 -1.0902  0.2212 -1.3755
  269DG     H23 6187   2.189   0.741   0.874 -0.6669 -1.5996  0.7664
  270DG      C1 6188   4.441   3.552   4.287 -0.5247 -0.1616 -0.1467
  270DG      C2 6189   3.719   3.763   4.652 -0.1098 -0.1601 -0.3642
  270DG      H3 6190   4.517   3.484   4.249 -0.4030  0.7715 -1.6326
  270DG      H4 6191   4.463   3.584   4.389 -2.3238 -1.1612  0.6044
  270DG      H5 6192   4.427   3.634   4.218 -0.5099  0.6227  0.7572
  270DG      H6 6193   3.694   3.788   4.755 -0.8798  0.6508 -0.7375
  270DG      H7 6194   3.698   3.855   4.598  2.3768  0.2050 -0.7986
  270DG      H8 6195   3.658   3.677   4.624 -0.9707 -0.2896  1.7354
  270DG      O9 6196   4.320   3.472   4.293  0.0511  0.2965  0.3281
  270DG     O10 6197   3.860   3.745   4.636 -0.4974  0.6150 -0.3048
  270DG     C11 6198   4.202   3.527   4.358 -0.2559  0.2627  0.5539
  270DG     C12 6199   3.910   3.630   4.706 -0.3344  0.0125  0.7193
  270DG     H13 6200   4.133   3.443   4.347 -0.4036  0.5797 -1.3138
  270DG     H14 6201   4.162   3.612   4.303  1.2615 -0.7368 -2.2908
  270DG     H15 6202   3.861   3.536   4.681 -0.0997 -0.0249  0.4018
  270DG     H16 6203   3.899   3.645   4.814  0.4380 -1.6572  1.0666
  270DG     C17 6204   4.207   3.567   4.507 -0.0808 -0.3742  0.2041
  270DG     C18 6205   4.065   3.612   4.688 -0.2710 -0.2912 -0.2695
  270DG     O19 6206   4.073   3.580   4.548 -0.2066  0.1499 -0.3489
  270DG     H20 6207   4.259   3.656   4.543 -0.9559  0.2330  0.0229
  270DG     H21 6208   4.247   3.489   4.571 -1.8067 -0.9190  0.6684
  270DG     H22 6209   4.124   3.702   4.704  0.6345 -1.1430  1.4004
  270DG     H23 6210   4.115   3.532   4.742  0.4095 -1.5870 -2.6468
  271DG      C1 6211   4.164   4.914   0.221  0.1008  0.0637  0.7134
  271DG      C2 6212   4.377   4.399   0.545 -0.3161 -0.5036  0.4520
  271DG      H3 6213   4.120   5.014   0.210  0.8285  0.2074 -1.4316
  271DG      H4 6214   4.111   4.839   0.163 -0.0500  0.0784  0.8310
  271DG      H5 6215   4.259   4.934   0.172 -1.6021  1.7754 -2.2358
  271DG      H6 6216   4.482   4.426   0.555 -0.6332  0.2759  2.1692
  271DG      H7 6217   4.380   4.314   0.613 -0.5294 -2.5735 -1.9669
  271DG      H8 6218   4.373   4.343   0.452  2.5604 -0.0255 -0.0592
  271DG      O9 6219   4.171   4.877   0.356 -1.0430  0.4640  0.6997
  271DG     O10 6220   4.299   4.511   0.576  0.5380 -0.3026  0.3873
  271DG     C11 6221   4.046   4.884   0.422  0.1709  0.1877 -0.4040
  271DG     C12 6222   4.181   4.477   0.639 -0.2345  0.4545  0.2777
  271DG     H13 6223   3.968   4.824   0.375 -0.2448 -0.1202  0.6594
  271DG     H14 6224   4.006   4.985   0.407 -0.6720 -0.1647 -0.5905
  271DG     H15 6225   4.188   4.418   0.730  0.9906  0.5105  0.2351
  271DG     H16 6226   4.122   4.419   0.567 -0.3769 -0.5260  1.1639
  271DG     C17 6227   4.045   4.831   0.566 -0.2507 -0.8830  0.3198
  271DG     C18 6228   4.095   4.603   0.665 -0.1528 -0.5438  0.4112
  271DG     O19 6229   4.098   4.695   0.554  0.0162  0.3933 -0.1200
  271DG     H20 6230   3.943   4.843   0.602 -0.3855  0.2746 -0.3993
  271DG     H21 6231   4.111   4.890   0.630 -1.7224 -0.1454  1.2232
  271DG     H22 6232   3.996   4.556   0.669  0.7793 -2.6031  0.5386
  271DG     H23 6233   4.117   4.641   0.764  1.1551 -2.7158  1.0302
  272DG      C1 6234   4.344   2.556   3.640  0.5920 -0.1058 -0.0897
  272DG      C2 6235   4.579   2.208   3.038  0.4787  0.3885 -0.1273
  272DG      H3 6236   4.272   2.529   3.563  1.3377 -1.2058 -0.4227
  272DG      H4 6237   4.396   2.649   3.617  1.9916 -0.1215  2.6413
  272DG      H5 6238   4.292   2.575   3.734  1.9371 -1.5808  1.0099
  272DG      H6 6239   4.562   2.281   2.959 -1.6374  0.9110  0.7622
  272DG      H7 6240   4.666   2.144   3.019  0.3081  0.2537 -0.4727
  272DG      H8 6241   4.491   2.145   3.049  1.0465 -0.1998  1.2709
  272DG      O9 6242   4.451   2.462   3.649 -0.1321 -0.0003  0.1794
  272DG     O10 6243   4.605   2.272   3.165  0.1802  0.0377  0.7411
  272DG     C11 6244   4.415   2.324   3.653  0.0253 -0.9319  0.0036
  272DG     C12 6245   4.509   2.377   3.195 -0.4467  0.1565 -0.4472
  272DG     H13 6246   4.347   2.302   3.735  0.6029 -1.1325  0.4333
  272DG     H14 6247   4.502   2.265   3.683  0.9745  0.1040 -0.6064
  272DG     H15 6248   4.420   2.350   3.138 -1.0358  1.9030 -0.4318
  272DG     H16 6249   4.537   2.472   3.150  0.6697 -0.4809 -1.1257
  272DG     C17 6250   4.364   2.264   3.520 -0.1713 -0.0795 -0.6058
  272DG     C18 6251   4.477   2.390   3.346 -0.2577 -1.0029 -0.0677
  272DG     O19 6252   4.447   2.262   3.401  0.2436 -0.0342 -0.2962
  272DG     H20 6253   4.270   2.313   3.496  0.0248  0.4430 -0.3255
  272DG     H21 6254   4.351   2.156   3.529  1.0544 -0.3467 -1.7828
  272DG     H22 6255   4.560   2.433   3.402  0.6638 -2.6130 -0.1141
  272DG     H23 6256   4.393   2.459   3.351 -0.5170 -1.2214 -1.1961
  273DG      C1 6257   0.500   1.811   0.016  0.0235  0.1309  0.3972
  273DG      C2 6258   1.182   1.719   0.274 -0.0519 -0.1887  0.1157
  273DG      H3 6259   0.544   1.780  -0.079 -1.1889 -0.5842  0.0388
  273DG      H4 6260   0.521   1.917   0.033 -0.6637  0.3201  0.1101
  273DG      H5 6261   0.394   1.791   0.004  0.3838 -0.3330 -2.9621
  273DG      H6 6262   1.194   1.820   0.236  1.3195 -0.8871 -1.4141
  273DG      H7 6263   1.241   1.728   0.366  1.8109 -0.4324 -1.0024
  273DG      H8 6264   1.218   1.652   0.196 -0.6529 -0.7039  0.2676
  273DG      O9 6265   0.564   1.733   0.107 -0.9976  0.0817  0.2986
  273DG     O10 6266   1.042   1.684   0.290 -0.8040 -0.6653 -0.0670
  273DG     C11 6267   0.521   1.732   0.239  0.2316 -0.7559 -0.5925
  273DG     C12 6268   0.993   1.723   0.414  0.3730  0.0086 -0.1912
  273DG     H13 6269   0.417   1.699   0.234 -0.5061  0.9392  1.8294
  273DG     H14 6270   0.513   1.832   0.280  0.6361 -1.7092  1.9957
  273DG     H15 6271   0.994   1.832   0.412  0.8227  0.0120  0.0320
  273DG     H16 6272   1.056   1.680   0.492 -0.5308  1.2500  1.2590
  273DG     C17 6273   0.629   1.659   0.320  0.5185 -0.0132 -0.1472
  273DG     C18 6274   0.849   1.674   0.427  0.6709 -0.8919 -0.9579
  273DG     O19 6275   0.754   1.729   0.335  0.3981 -0.6177  0.1005
  273DG     H20 6276   0.656   1.560   0.281  0.4900 -0.6590  1.3837
  273DG     H21 6277   0.594   1.632   0.419  0.4636 -0.2320 -0.2239
  273DG     H22 6278   0.842   1.565   0.426 -2.8243 -0.8060 -3.1145
  273DG     H23 6279   0.819   1.691   0.531  1.2280 -2.0766 -0.5849
  274DG      C1 6280   3.455   4.964   5.180  0.1678  0.2040  0.6472
  274DG      C2 6281   3.577   4.666   4.604  0.1385 -0.1430 -0.7869
  274DG      H3 6282   3.556   5.006   5.185 -0.4975  2.1051 -0.6816
  274DG      H4 6283   3.452   4.867   5.229 -0.0481  0.1014  0.4318
  274DG      H5 6284   3.398   5.033   5.242 -1.1321  0.2289 -0.5382
  274DG      H6 6285   3.680   4.663   4.639 -0.6518  0.4567  1.7605
  274DG      H7 6286   3.508   4.590   4.638  1.3790 -0.0104  2.3962
  274DG      H8 6287   3.591   4.659   4.496  0.4733  1.0556 -0.8440
  274DG      O9 6288   3.416   4.976   5.040 -0.2038  0.3126 -0.4532
  274DG     O10 6289   3.520   4.793   4.650 -0.5024 -0.2823  0.5848
  274DG     C11 6290   3.276   4.978   5.019 -0.0425  0.3574 -0.4774
  274DG     C12 6291   3.394   4.821   4.591 -0.4861 -0.3702  0.4084
  274DG     H13 6292   3.233   5.060   5.077  2.3138  2.8456 -1.9587
  274DG     H14 6293   3.241   4.885   5.061  1.7262  0.2949  0.9987
  274DG     H15 6294   3.326   4.738   4.611  0.4263 -0.6472  2.7688
  274DG     H16 6295   3.412   4.843   4.486  1.5449  1.2811  1.0273
  274DG     C17 6296   3.232   4.991   4.875 -0.1336  0.2519  0.7015
  274DG     C18 6297   3.316   4.944   4.657 -0.4600 -0.0675  0.3677
  274DG     O19 6298   3.318   4.912   4.792  0.2995 -0.3912 -0.9525
  274DG     H20 6299   3.255   5.091   4.839 -0.8426 -0.2513 -1.2894
  274DG     H21 6300   3.126   4.985   4.848 -0.6332 -0.0928  2.6077
  274DG     H22 6301   3.363   5.040   4.633 -0.0288 -0.7489 -1.6905
  274DG     H23 6302   3.210   4.947   4.632 -0.0581  0.9396 -1.3914
  275DG      C1 6303   2.827   2.354   1.375  0.5438 -0.5113 -0.5704
  275DG      C2 6304   2.671   2.447   0.691  0.1355  0.7164  0.4967
  275DG      H3 6305   2.779   2.266   1.417  1.2406  0.3473  2.3177
  275DG      H4 6306   2.753   2.434   1.377  0.5878 -0.4601 -0.8925
  275DG      H5 6307   2.905   2.377   1.449  1.2558  2.5571 -2.0938
  275DG      H6 6308   2.696   2.406   0.593  0.8248 -0.5631  1.1866
  275DG      H7 6309   2.581   2.405   0.737  0.5601 -2.0133 -0.9685
  275DG      H8 6310   2.661   2.555   0.691  0.8637  0.9034 -3.1028
  275DG      O9 6311   2.887   2.358   1.251  0.2199 -0.3990 -0.3935
  275DG     O10 6312   2.780   2.412   0.779 -0.0586 -0.3292  0.3866
  275DG     C11 6313   2.954   2.234   1.215 -0.3004 -0.6882  0.4338
  275DG     C12 6314   2.829   2.282   0.762 -0.5090 -0.4530 -0.1749
  275DG     H13 6315   2.882   2.152   1.209 -0.4340 -0.4665 -2.4120
  275DG     H14 6316   3.031   2.215   1.290  1.2999  1.1061 -0.6618
  275DG     H15 6317   2.875   2.276   0.663 -0.5425  0.1665 -0.2342
  275DG     H16 6318   2.757   2.200   0.769  0.0646 -0.8778  0.9587
  275DG     C17 6319   3.013   2.241   1.074  0.5648  0.2088  0.4145
  275DG     C18 6320   2.942   2.248   0.855 -0.3942  0.2058 -0.8052
  275DG     O19 6321   2.896   2.249   0.993 -0.1026 -0.6538  0.2246
  275DG     H20 6322   3.076   2.153   1.056 -1.0774 -0.6525 -1.5671
  275DG     H21 6323   3.076   2.330   1.075  0.7834  0.0565  0.3344
  275DG     H22 6324   2.976   2.148   0.830 -0.5804  0.2240 -1.1467
  275DG     H23 6325   3.032   2.306   0.835  0.3270 -1.1194 -1.5262
  276DG      C1 6326   2.782   3.652   5.488  0.3038 -0.2685 -0.0046
  276DG      C2 6327   2.202   3.185   5.361 -0.3525  1.0718 -0.2308
  276DG      H3 6328   2.887   3.654   5.518  1.3830  1.0201 -3.4132
  276DG      H4 6329   2.728   3.629   5.580  1.4343 -0.0023  0.7598
  276DG      H5 6330   2.772   3.757   5.461  0.9130  0.4956  2.4350
  276DG      H6 6331   2.108   3.240   5.364 -2.2280 -1.8434 -1.1198
  276DG      H7 6332   2.186   3.084   5.325 -0.2320  0.8416  0.3615
  276DG      H8 6333   2.238   3.179   5.463 -1.9839  1.2855  0.3808
  276DG      O9 6334   2.756   3.571   5.372  0.4168 -0.6326  0.7791
  276DG     O10 6335   2.298   3.241   5.270 -0.5819  0.2853 -0.5239
  276DG     C11 6336   2.640   3.606   5.300 -0.3083  0.5563  0.0868
  276DG     C12 6337   2.425   3.183   5.285 -0.4162  0.3454 -0.6256
  276DG     H13 6338   2.658   3.697   5.243 -0.8100  2.3784  2.6517
  276DG     H14 6339   2.560   3.641   5.365 -0.5277  0.9143 -0.3712
  276DG     H15 6340   2.419   3.080   5.252  0.9410 -0.8698  2.5687
  276DG     H16 6341   2.461   3.181   5.388  0.8266 -0.4869 -1.0633
  276DG     C17 6342   2.603   3.490   5.205  0.1335 -0.9364 -0.0938
  276DG     C18 6343   2.510   3.270   5.197  0.0282 -0.3431 -0.2753
  276DG     O19 6344   2.545   3.383   5.279 -0.2143  0.2970  0.6620
  276DG     H20 6345   2.698   3.461   5.161  1.1029  2.3300 -0.4131
  276DG     H21 6346   2.530   3.526   5.133 -0.0959  0.7800  0.9403
  276DG     H22 6347   2.601   3.217   5.167 -0.8619 -1.1109 -1.7116
  276DG     H23 6348   2.459   3.309   5.109 -0.4796 -1.4150 -0.4687
  277DG      C1 6349   0.426   1.323   2.832 -0.7816  0.2993  0.3657
  277DG      C2 6350  -0.229   1.363   3.208  0.1919 -0.4567 -0.2560
  277DG      H3 6351   0.528   1.297   2.860 -0.4471  1.1019 -0.0800
  277DG      H4 6352   0.426   1.432   2.835 -0.0488  0.2910  0.7976
  277DG      H5 6353   0.398   1.299   2.729 -0.3987 -1.1854  0.5785
  277DG      H6 6354  -0.292   1.274   3.220  0.7340 -0.5913  2.3194
  277DG      H7 6355  -0.238   1.429   3.295 -0.4792  0.2929 -0.8785
  277DG      H8 6356  -0.253   1.414   3.115  0.6339 -1.4810 -0.9468
  277DG      O9 6357   0.336   1.273   2.928  0.0326 -0.0296 -0.0129
  277DG     O10 6358  -0.088   1.332   3.197  0.0405  0.1228  0.3925
  277DG     C11 6359   0.384   1.307   3.063 -0.0011  0.4812  0.4040
  277DG     C12 6360  -0.052   1.226   3.281 -0.0191  0.3593 -0.4541
  277DG     H13 6361   0.375   1.415   3.072 -0.9859  0.5995 -1.4649
  277DG     H14 6362   0.488   1.276   3.072  1.1173  3.6399 -0.5516
  277DG     H15 6363  -0.097   1.130   3.258 -3.3213  1.4121  1.0244
  277DG     H16 6364  -0.083   1.242   3.384  0.7248 -2.1754  0.2526
  277DG     C17 6365   0.297   1.229   3.167 -0.0811  0.0473 -1.1149
  277DG     C18 6366   0.102   1.227   3.285  0.3015 -0.1287 -0.4638
  277DG     O19 6367   0.162   1.238   3.161  0.1307 -0.2140  0.5421
  277DG     H20 6368   0.334   1.264   3.263  0.3050  2.4057 -2.0660
  277DG     H21 6369   0.315   1.121   3.169  0.0641 -0.0471  3.6326
  277DG     H22 6370   0.124   1.309   3.354 -2.1592  0.5661 -0.4173
  277DG     H23 6371   0.141   1.139   3.337 -1.7246 -1.0150 -0.3519
  278DG      C1 6372   4.817   2.655   5.208  0.1048  0.4334  0.0526
  278DG      C2 6373   4.607   1.994   5.266 -0.4136  0.1189 -0.5110
  278DG      H3 6374   4.787   2.759   5.199  0.3587  0.3962 -1.4289
  278DG      H4 6375   4.869   2.644   5.113  1.3170 -1.9297  0.9012
  278DG      H5 6376   4.894   2.655   5.285  0.6929  3.4771 -0.3989
  278DG      H6 6377   4.620   1.933   5.176 -0.5706 -0.1846 -0.3294
  278DG      H7 6378   4.708   2.002   5.305  0.3445  1.7452 -2.5893
  278DG      H8 6379   4.549   1.943   5.343 -0.0056  1.0703  0.4562
  278DG      O9 6380   4.705   2.569   5.231  0.0254  0.5545 -0.0452
  278DG     O10 6381   4.566   2.129   5.246  0.3180  0.0627  0.2970
  278DG     C11 6382   4.597   2.601   5.136  0.8166  0.0451  0.0199
  278DG     C12 6383   4.452   2.148   5.171 -0.1040 -0.2620 -0.4402
  278DG     H13 6384   4.627   2.584   5.033 -0.0170  1.6348 -0.5312
  278DG     H14 6385   4.570   2.706   5.150 -1.3387 -0.4488 -0.0569
  278DG     H15 6386   4.367   2.086   5.202 -1.7737  0.8206 -2.5338
  278DG     H16 6387   4.471   2.128   5.066  1.0054 -0.8530 -0.1363
  278DG     C17 6388   4.482   2.515   5.162  0.1809 -0.0828  0.5679
  278DG     C18 6389   4.408   2.290   5.186  0.2011  0.2865  0.2158
  278DG     O19 6390   4.507   2.375   5.145  0.6242 -0.0023  0.0152
  278DG     H20 6391   4.404   2.532   5.088 -0.7388 -2.3631  0.9177
  278DG     H21 6392   4.445   2.531   5.263 -2.4172 -0.1898 -0.2826
  278DG     H22 6393   4.322   2.316   5.123 -0.6276  0.5448  1.4317
  278DG     H23 6394   4.399   2.296   5.294  1.9234  1.0954  0.3430
  279DG      C1 6395   0.746   0.610   2.327 -0.4426  0.0153  0.4269
  279DG      C2 6396   0.940   0.874   1.628  0.6625 -0.2196 -0.1014
  279DG      H3 6397   0.684   0.696   2.301 -2.7226 -1.3048  1.2164
  279DG      H4 6398   0.836   0.636   2.382 -0.0523  1.5182 -0.8559
  279DG      H5 6399   0.692   0.538   2.388  0.8709 -0.5586  0.9625
  279DG      H6 6400   0.984   0.950   1.693 -1.3389 -0.3645  1.5056
  279DG      H7 6401   1.014   0.826   1.564 -2.0117 -2.5084 -1.6744
  279DG      H8 6402   0.873   0.940   1.574  1.4846  1.0789  0.4119
  279DG      O9 6403   0.792   0.548   2.203 -0.4069  0.0440  0.2186
  279DG     O10 6404   0.861   0.783   1.706 -0.3966 -0.5045 -0.1339
  279DG     C11 6405   0.688   0.519   2.122  1.1133  0.5742 -0.5306
  279DG     C12 6406   0.872   0.809   1.849 -0.1260 -0.0105  0.0227
  279DG     H13 6407   0.616   0.601   2.120  1.5732  1.0021 -0.0161
  279DG     H14 6408   0.623   0.441   2.162 -0.3919  2.7705  1.6041
  279DG     H15 6409   0.867   0.917   1.862 -2.6455 -0.1289  0.5891
  279DG     H16 6410   0.967   0.778   1.891  0.0156 -1.2239 -1.1273
  279DG     C17 6411   0.724   0.499   1.975 -0.4887 -0.2718 -0.5948
  279DG     C18 6412   0.767   0.729   1.921  0.2177  0.1615  0.0269
  279DG     O19 6413   0.819   0.592   1.922  1.0499  0.3695 -0.5903
  279DG     H20 6414   0.632   0.491   1.916  0.0061 -1.1830 -1.2682
  279DG     H21 6415   0.771   0.401   1.964 -0.5393 -0.1865 -1.7068
  279DG     H22 6416   0.752   0.768   2.021  1.9333 -0.8243  0.7292
  279DG     H23 6417   0.674   0.734   1.866 -1.0221 -0.7529  1.9372
  280DG      C1 6418   0.847   2.011   2.112  0.1484 -0.3957 -0.0175
  280DG      C2 6419   0.361   1.681   1.772  0.5674  0.2489  0.3504
  280DG      H3 6420   0.871   2.072   2.199 -0.5919 -1.8164  1.2460
  280DG      H4 6421   0.821   2.072   2.026  2.3019  0.1497 -0.3402
  280DG      H5 6422   0.933   1.958   2.070 -0.3840 -0.7402 -0.6894
  280DG      H6 6423   0.385   1.777   1.725  1.1166  0.1967  0.5257
  280DG      H7 6424   0.404   1.605   1.706 -1.1862 -0.2234 -0.3043
  280DG      H8 6425   0.253   1.669   1.781  0.4886 -0.3680 -1.1403
  280DG      O9 6426   0.735   1.925   2.135 -0.0467 -0.3628 -0.0558
  280DG     O10 6427   0.428   1.682   1.896 -0.3117  0.2615 -0.3176
  280DG     C11 6428   0.776   1.812   2.215  0.2823 -0.1986 -0.5421
  280DG     C12 6429   0.423   1.557   1.969  0.0094 -0.6401 -0.2275
  280DG     H13 6430   0.807   1.846   2.314 -1.4997 -0.3571  0.1201
  280DG     H14 6431   0.846   1.749   2.162 -1.0306 -0.4426 -2.0593
  280DG     H15 6432   0.467   1.479   1.908  0.8027 -0.2771 -0.1296
  280DG     H16 6433   0.321   1.517   1.970 -0.0009 -0.6224 -0.5318
  280DG     C17 6434   0.653   1.715   2.230 -0.7795 -0.4915 -0.1083
  280DG     C18 6435   0.484   1.585   2.111  0.0270  0.5601  0.5043
  280DG     O19 6436   0.605   1.673   2.104  0.5575 -0.0383 -0.0393
  280DG     H20 6437   0.579   1.761   2.295  1.4702 -0.8099  2.9041
  280DG     H21 6438   0.674   1.629   2.294  1.6186  0.6398  0.7554
  280DG     H22 6439   0.406   1.622   2.178  0.3797 -0.6557  1.6209
  280DG     H23 6440   0.527   1.496   2.156 -0.3565  0.6326  1.0236
  281DG      C1 6441   2.872   4.094   4.962  0.2664  0.3753 -0.6777
  281DG      C2 6442   3.030   4.388   5.551  0.0110 -0.5367  0.7103
  281DG      H3 6443   2.766   4.120   4.967 -0.2581 -1.7167  0.7745
  281DG      H4 6444   2.866   3.987   4.980  1.2896  0.2718 -0.8892
  281DG      H5 6445   2.912   4.109   4.862  1.5268  1.5568 -0.0330
  281DG      H6 6446   3.095   4.303   5.577  1.4599  0.1572 -0.4748
  281DG      H7 6447   3.055   4.459   5.629  0.0535 -1.7018  1.7959
  281DG      H8 6448   2.929   4.363   5.583  0.2691 -1.0844  1.1081
  281DG      O9 6449   2.956   4.148   5.063 -0.0118  0.5942 -0.3871
  281DG     O10 6450   3.043   4.446   5.424 -0.1350  0.6842  0.9575
  281DG     C11 6451   3.090   4.108   5.051  0.6625  0.6378  0.2576
  281DG     C12 6452   3.175   4.460   5.362  0.9540 -0.3344 -0.7613
  281DG     H13 6453   3.139   4.145   4.961 -0.5502  0.8220 -0.3436
  281DG     H14 6454   3.092   3.999   5.043  2.3441  0.7811 -2.6658
  281DG     H15 6455   3.244   4.495   5.439 -0.3629  0.3025  0.1668
  281DG     H16 6456   3.157   4.541   5.291  0.2736  0.9742  0.8494
  281DG     C17 6457   3.170   4.147   5.176 -0.0887 -0.0276  0.3238
  281DG     C18 6458   3.231   4.333   5.307  0.2573 -0.3905 -0.2205
  281DG     O19 6459   3.142   4.283   5.207  0.1011 -0.1799 -0.2044
  281DG     H20 6460   3.277   4.156   5.156  0.2917 -1.3026  1.6160
  281DG     H21 6461   3.138   4.093   5.265 -1.1408 -0.3001 -0.2090
  281DG     H22 6462   3.326   4.342   5.255  0.0925 -0.4009 -0.5275
  281DG     H23 6463   3.241   4.266   5.392 -1.0178 -0.7185 -0.3108
  282DG      C1 6464   1.376   4.398   3.880 -0.4357  0.3103 -0.2411
  282DG      C2 6465   1.978   4.116   3.636  0.2014  0.0702  0.4810
  282DG      H3 6466   1.403   4.379   3.983  0.2391 -1.4495 -0.7047
  282DG      H4 6467   1.331   4.307   3.840  0.1996 -0.5886  1.0419
  282DG      H5 6468   1.310   4.484   3.870 -0.2953  0.4566  0.0819
  282DG      H6 6469   2.083   4.105   3.663  0.2619  0.0805  0.2535
  282DG      H7 6470   1.931   4.018   3.649 -1.3791  0.4056 -2.0106
  282DG      H8 6471   1.958   4.127   3.529  0.4619 -1.4559  0.2486
  282DG      O9 6472   1.489   4.422   3.799  0.1928  0.5772 -0.2753
  282DG     O10 6473   1.911   4.217   3.714  0.2233  0.1022 -0.4358
  282DG     C11 6474   1.551   4.547   3.830  0.0981 -0.2227  0.3277
  282DG     C12 6475   1.986   4.335   3.698 -0.2410 -0.1622  0.0945
  282DG     H13 6476   1.566   4.572   3.935  0.1274 -0.4861  0.3889
  282DG     H14 6477   1.486   4.625   3.791  0.0749 -0.1634  0.4851
  282DG     H15 6478   2.073   4.335   3.632 -0.5964 -2.9865 -0.5122
  282DG     H16 6479   2.030   4.348   3.797  0.0266  2.6232 -0.3373
  282DG     C17 6480   1.680   4.547   3.740 -0.3898  0.2615 -0.1102
  282DG     C18 6481   1.891   4.453   3.674 -0.4501 -0.7140 -0.4969
  282DG     O19 6482   1.784   4.447   3.762 -0.2386 -0.0359  0.2734
  282DG     H20 6483   1.730   4.642   3.757  1.7185 -1.0852  1.6722
  282DG     H21 6484   1.646   4.533   3.637 -0.9686 -1.4976  0.2835
  282DG     H22 6485   1.938   4.546   3.705 -0.5309 -1.4704  2.1573
  282DG     H23 6486   1.861   4.449   3.569 -0.8421  1.4932 -0.5165
  283DG      C1 6487   1.606   3.892   2.890  0.4593 -0.4735 -0.1201
  283DG      C2 6488   1.733   4.700   2.662  0.8213  0.1624 -0.6207
  283DG      H3 6489   1.547   3.915   2.978  3.4527 -0.9188  2.1610
  283DG      H4 6490   1.678   3.821   2.930 -0.9892 -1.5368  0.6623
  283DG      H5 6491   1.540   3.842   2.820 -1.2820  0.3677  0.8560
  283DG      H6 6492   1.717   4.786   2.727 -2.4649  0.7294 -1.9963
  283DG      H7 6493   1.833   4.661   2.679  0.7656  0.8450  1.5840
  283DG      H8 6494   1.723   4.733   2.559  0.8020 -1.3755 -1.1222
  283DG      O9 6495   1.656   4.011   2.833  0.6176 -0.2102  0.2946
  283DG     O10 6496   1.639   4.593   2.683  0.4651  0.4821 -0.2674
  283DG     C11 6497   1.755   4.069   2.922 -1.1539 -0.1012  0.2285
  283DG     C12 6498   1.662   4.519   2.801 -0.2517 -0.8534  0.0092
  283DG     H13 6499   1.839   4.000   2.921 -0.9172  0.1765  0.7157
  283DG     H14 6500   1.722   4.083   3.024  0.2019  0.1132  0.6506
  283DG     H15 6501   1.562   4.504   2.841 -0.4405  0.7971  0.2367
  283DG     H16 6502   1.709   4.580   2.879 -1.3014 -0.7193  0.5488
  283DG     C17 6503   1.823   4.198   2.862  0.1258  0.2210  0.1974
  283DG     C18 6504   1.737   4.403   2.753  0.8345 -0.9443  0.2323
  283DG     O19 6505   1.734   4.311   2.859  0.0836 -0.6056  0.4212
  283DG     H20 6506   1.846   4.161   2.762  0.4021 -0.4034  0.4893
  283DG     H21 6507   1.921   4.220   2.904 -0.3214  0.4740  1.1483
  283DG     H22 6508   1.693   4.352   2.667  0.5764 -0.6868  0.2124
  283DG     H23 6509   1.841   4.424   2.727  0.6209  0.5203  0.5080
  284DG      C1 6510   0.504   1.692   4.855  1.0755 -0.2771 -0.2727
  284DG      C2 6511   0.390   2.021   4.217 -0.0921 -0.2387 -0.1886
  284DG      H3 6512   0.472   1.707   4.958  0.8161  1.2444 -0.5447
  284DG      H4 6513   0.574   1.774   4.840  0.3139  0.5122  0.3605
  284DG      H5 6514   0.550   1.594   4.843  1.0839 -0.5365  1.5966
  284DG      H6 6515   0.489   1.978   4.197  1.0309  0.4099  3.2657
  284DG      H7 6516   0.327   2.034   4.129 -0.3702 -1.4471 -0.1893
  284DG      H8 6517   0.430   2.116   4.251  0.5603 -0.7981  0.6705
  284DG      O9 6518   0.393   1.722   4.770 -0.2631  0.0542 -0.4869
  284DG     O10 6519   0.334   1.950   4.332  0.4116 -0.6818  0.0196
  284DG     C11 6520   0.312   1.833   4.800 -0.5118 -0.6335  0.4826
  284DG     C12 6521   0.204   1.993   4.374 -0.6173  0.2224  0.4370
  284DG     H13 6522   0.375   1.922   4.799 -2.0587  0.5103 -1.4894
  284DG     H14 6523   0.263   1.816   4.897  1.4877 -0.3146  1.6058
  284DG     H15 6524   0.138   1.986   4.287 -0.6156 -1.7299  0.5497
  284DG     H16 6525   0.207   2.095   4.412  0.6159  1.3819 -2.5073
  284DG     C17 6526   0.193   1.857   4.705 -0.4861  0.1728  0.3863
  284DG     C18 6527   0.156   1.899   4.485  0.2622 -0.0184  0.5597
  284DG     O19 6528   0.243   1.910   4.586  0.2220  0.2201 -0.4334
  284DG     H20 6529   0.135   1.941   4.742  0.9436  1.5016 -0.2553
  284DG     H21 6530   0.138   1.763   4.696  0.9894 -0.5975 -1.3461
  284DG     H22 6531   0.055   1.924   4.518  0.6026  1.3017  0.6610
  284DG     H23 6532   0.144   1.801   4.440  0.2053 -0.0660  0.6796
  285DG      C1 6533   4.932   5.336   1.323 -0.1931  0.3841  0.7325
  285DG      C2 6534   5.195   5.025   0.800 -0.6984 -0.1976 -0.1594
  285DG      H3 6535   4.840   5.279   1.311  0.4660 -0.1675 -2.6934
  285DG      H4 6536   4.930   5.422   1.390 -0.1637  1.9470 -1.2013
  285DG      H5 6537   4.993   5.260   1.372 -0.0584 -1.3177 -1.8844
  285DG      H6 6538   5.196   5.038   0.691  0.3615  2.1924  0.0783
  285DG      H7 6539   5.300   5.005   0.824  0.6517  1.2054 -4.0607
  285DG      H8 6540   5.123   4.949   0.830  1.9017 -2.0856  1.7187
  285DG      O9 6541   4.983   5.359   1.192  0.1189 -0.2819  0.5639
  285DG     O10 6542   5.155   5.151   0.849  0.4928  0.0423  0.1535
  285DG     C11 6543   5.096   5.449   1.195 -0.0944  0.4297 -0.5521
  285DG     C12 6544   5.237   5.245   0.790  0.4817  0.0893  0.3767
  285DG     H13 6545   5.177   5.411   1.256 -0.2065  1.8599  0.5337
  285DG     H14 6546   5.068   5.544   1.241 -0.5295 -0.6705  1.6064
  285DG     H15 6547   5.224   5.252   0.682 -1.4878 -2.7055  0.3555
  285DG     H16 6548   5.343   5.226   0.806  0.5318  0.5702  0.6357
  285DG     C17 6549   5.143   5.490   1.052  0.0445  0.1677  0.7314
  285DG     C18 6550   5.191   5.374   0.851  0.4443 -0.4896 -0.0263
  285DG     O19 6551   5.186   5.371   0.993  0.1265  0.4207 -0.2000
  285DG     H20 6552   5.236   5.545   1.059 -0.2238  0.6285  0.6835
  285DG     H21 6553   5.063   5.541   0.999  1.4271  1.9662  0.2944
  285DG     H22 6554   5.263   5.450   0.822  0.0610 -0.1587 -0.1086
  285DG     H23 6555   5.098   5.411   0.808  0.7466  0.8268  0.4149
  286DG      C1 6556   3.817   1.246   2.124 -0.1448  0.3277 -0.7169
  286DG      C2 6557   3.206   1.405   2.160  0.1298 -0.4715  0.1884
  286DG      H3 6558   3.906   1.226   2.183  1.5636  1.1156 -2.8600
  286DG      H4 6559   3.797   1.353   2.137  1.8591  0.4642  2.1448
  286DG      H5 6560   3.850   1.240   2.020  1.7063 -0.0524 -0.1318
  286DG      H6 6561   3.259   1.485   2.211  2.1549 -1.6032 -0.0196
  286DG      H7 6562   3.177   1.424   2.056  0.3366 -1.5446 -0.0843
  286DG      H8 6563   3.114   1.391   2.217  0.0674 -0.6484  0.0464
  286DG      O9 6564   3.694   1.187   2.151  0.1988  0.9573 -0.4171
  286DG     O10 6565   3.299   1.289   2.163 -0.6115  0.4599 -0.6831
  286DG     C11 6566   3.689   1.050   2.103 -0.4831 -0.5876  0.4014
  286DG     C12 6567   3.238   1.168   2.118 -0.7953 -0.0338  0.4243
  286DG     H13 6568   3.771   0.984   2.131  0.7593  0.3082 -0.9667
  286DG     H14 6569   3.686   1.037   1.995  1.3229  1.1858  0.0992
  286DG     H15 6570   3.222   1.172   2.011 -1.8112 -0.3027  0.5471
  286DG     H16 6571   3.141   1.153   2.166 -1.5186  0.5891 -0.7964
  286DG     C17 6572   3.559   0.981   2.133 -0.1372  0.3215  0.4067
  286DG     C18 6573   3.325   1.049   2.147 -0.2027  0.9166  1.0514
  286DG     O19 6574   3.453   1.071   2.093 -0.3471  0.1489 -0.0759
  286DG     H20 6575   3.554   0.955   2.239  1.9622 -2.2052 -0.0297
  286DG     H21 6576   3.544   0.892   2.072 -0.0570  2.2849 -2.6850
  286DG     H22 6577   3.327   1.034   2.255 -0.1888 -2.1706  0.7254
  286DG     H23 6578   3.281   0.965   2.094 -1.2246  1.9945  0.1455
  287DG      C1 6579   5.338   2.089   1.052  0.3353 -0.0219 -1.2507
  287DG      C2 6580   4.951   2.665   1.340  0.1516  0.5960  0.3432
  287DG      H3 6581   5.234   2.077   1.023 -0.4122  0.0874  1.1586
  287DG      H4 6582   5.368   1.994   1.096  0.8673  1.0074  0.7359
  287DG      H5 6583   5.398   2.099   0.962 -0.0934 -0.1258 -1.5499
  287DG      H6 6584   4.961   2.761   1.391  0.1532  0.9936 -0.3855
  287DG      H7 6585   4.901   2.683   1.245  2.1859 -0.5848 -1.0386
  287DG      H8 6586   4.891   2.599   1.402 -1.8077  2.1485  0.2181
  287DG      O9 6587   5.370   2.196   1.144 -0.1632 -0.2519  0.1365
  287DG     O10 6588   5.073   2.599   1.302  0.6931  0.5232 -0.2612
  287DG     C11 6589   5.296   2.181   1.260  0.9208 -0.0658  0.0021
  287DG     C12 6590   5.161   2.598   1.414 -0.6022  0.4714 -0.4645
  287DG     H13 6591   5.328   2.083   1.297  0.2080  0.2355  1.4699
  287DG     H14 6592   5.190   2.167   1.238  1.2579 -0.8737 -1.2088
  287DG     H15 6593   5.115   2.534   1.490  3.1075 -1.2795  0.5267
  287DG     H16 6594   5.180   2.695   1.459 -2.4447  1.5264 -1.8485
  287DG     C17 6595   5.316   2.294   1.362  0.5557  0.5854 -0.3281
  287DG     C18 6596   5.292   2.529   1.374 -0.9435 -0.5600  0.4881
  287DG     O19 6597   5.267   2.411   1.304 -0.0268 -0.3586 -0.5428
  287DG     H20 6598   5.419   2.296   1.399  0.4740 -0.0345 -0.0550
  287DG     H21 6599   5.245   2.267   1.440  1.3269  0.6413  0.4076
  287DG     H22 6600   5.343   2.604   1.314 -3.4460  0.4606 -0.4874
  287DG     H23 6601   5.365   2.505   1.452 -1.6232 -1.7956  0.7699
  288DG      C1 6602   4.027   4.821   1.510  0.1065  0.2177 -0.4409
  288DG      C2 6603   4.723   5.051   1.454 -0.0912  0.1594 -0.1351
  288DG      H3 6604   3.978   4.915   1.488 -0.9998  0.0089  0.9554
  288DG      H4 6605   3.970   4.781   1.594  0.0432 -1.2193 -1.1289
  288DG      H5 6606   4.029   4.748   1.429  1.3750  0.3605 -0.5610
  288DG      H6 6607   4.824   5.039   1.414 -0.5350 -2.4943 -0.6188
  288DG      H7 6608   4.699   4.951   1.490  1.3284 -0.6186 -1.2530
  288DG      H8 6609   4.676   5.074   1.359 -1.5983 -0.7926  0.3475
  288DG      O9 6610   4.163   4.845   1.550 -0.2966  0.4739 -0.4381
  288DG     O10 6611   4.700   5.139   1.566  0.4408 -0.2895  0.2772
  288DG     C11 6612   4.161   4.922   1.673 -0.3302  0.0025  0.7747
  288DG     C12 6613   4.558   5.156   1.587  0.6295  0.5419 -0.8204
  288DG     H13 6614   4.093   4.880   1.748  0.0398  1.1963  1.8117
  288DG     H14 6615   4.122   5.022   1.659 -0.1649  0.4831  3.2885
  288DG     H15 6616   4.506   5.153   1.492 -0.0542  1.3999 -0.4884
  288DG     H16 6617   4.527   5.254   1.625 -0.3351  0.0091 -0.1773
  288DG     C17 6618   4.298   4.933   1.730 -0.2058  0.3073 -0.4517
  288DG     C18 6619   4.507   5.043   1.687  0.1590 -0.0614  0.5044
  288DG     O19 6620   4.367   5.034   1.657 -0.6240 -0.6482  0.1666
  288DG     H20 6621   4.351   4.838   1.737 -0.3062  0.1255 -1.8519
  288DG     H21 6622   4.299   4.974   1.832  0.3442 -0.4784 -0.1303
  288DG     H22 6623   4.547   4.947   1.656  0.3989  0.9713 -2.8354
  288DG     H23 6624   4.532   5.079   1.787 -0.0649 -0.5976  0.7545
  289DG      C1 6625   4.710   0.899   0.899 -0.1526 -0.3900 -0.3700
  289DG      C2 6626   4.701   1.513   1.268 -0.3976  0.3246 -0.7431
  289DG      H3 6627   4.793   0.895   0.829  1.3318 -0.7463  1.3379
  289DG      H4 6628   4.615   0.927   0.853 -0.3733  0.1127  0.3800
  289DG      H5 6629   4.709   0.795   0.933  0.3131  0.0309  1.0275
  289DG      H6 6630   4.597   1.530   1.296 -0.1490 -0.3467  0.6981
  289DG      H7 6631   4.753   1.561   1.352 -1.0162 -0.4393  0.1000
  289DG      H8 6632   4.707   1.566   1.173 -0.6740 -0.1112 -1.0077
  289DG      O9 6633   4.757   0.983   1.003  0.2812  0.2791  0.1165
  289DG     O10 6634   4.745   1.376   1.269 -0.8538 -0.0358  0.3185
  289DG     C11 6635   4.884   0.940   1.056  0.1994  0.4865  1.0877
  289DG     C12 6636   4.889   1.360   1.257 -0.6795 -0.6801 -0.4828
  289DG     H13 6637   4.964   0.970   0.987  0.7629 -2.8689  0.1324
  289DG     H14 6638   4.901   0.833   1.055  0.0793  0.4337 -1.3443
  289DG     H15 6639   4.939   1.407   1.341  1.9431  0.1626 -2.3833
  289DG     H16 6640   4.921   1.406   1.163 -0.5801  0.5710  0.1456
  289DG     C17 6641   4.905   1.006   1.190  0.1808  0.3404  0.1310
  289DG     C18 6642   4.923   1.217   1.278  0.6594  0.5049  0.3179
  289DG     O19 6643   4.866   1.140   1.178 -0.3005  0.3213  0.1771
  289DG     H20 6644   5.006   0.986   1.226  0.4090  2.2912  0.6899
  289DG     H21 6645   4.838   0.960   1.263  0.1437 -0.2855 -0.2828
  289DG     H22 6646   5.031   1.236   1.277  1.0484 -0.1456  5.0960
  289DG     H23 6647   4.897   1.186   1.379 -0.2051  0.5612  0.1147
  290DG      C1 6648   2.713   0.590   3.533 -0.4987  0.3351 -0.6051
  290DG      C2 6649   2.979   1.139   3.707 -0.4027  0.4818 -0.6516
  290DG      H3 6650   2.665   0.537   3.615 -0.8914  2.3373  0.5110
  290DG      H4 6651   2.818   0.565   3.517  0.1008  1.4974  1.1945
  290DG      H5 6652   2.652   0.554   3.450  0.6921 -1.2685 -0.8278
  290DG      H6 6653   2.980   1.238   3.753 -2.2839 -0.1436  0.8606
  290DG      H7 6654   3.075   1.088   3.720  0.0660  0.6549 -2.9579
  290DG      H8 6655   2.950   1.137   3.602 -0.5305 -1.9843 -0.6281
  290DG      O9 6656   2.700   0.731   3.546  0.6438 -0.3520  0.4629
  290DG     O10 6657   2.888   1.052   3.768 -0.0848 -0.0119  0.3055
  290DG     C11 6658   2.569   0.779   3.540  0.0116 -0.3540 -0.2435
  290DG     C12 6659   2.763   1.108   3.813 -0.4864 -0.2176  0.2998
  290DG     H13 6660   2.517   0.732   3.624  2.9705  0.8037  2.4606
  290DG     H14 6661   2.508   0.754   3.453 -2.9225  0.8873  1.3145
  290DG     H15 6662   2.767   1.212   3.845 -2.3597 -0.0841  0.2206
  290DG     H16 6663   2.736   1.048   3.900 -2.4906  1.5212  0.9544
  290DG     C17 6664   2.568   0.929   3.568  0.4213  0.5266 -0.0227
  290DG     C18 6665   2.659   1.102   3.699 -0.2728  0.9123 -0.1367
  290DG     O19 6666   2.651   0.964   3.680 -0.1271 -0.2956  0.0822
  290DG     H20 6667   2.463   0.950   3.588  0.5192 -0.9407  2.5294
  290DG     H21 6668   2.597   0.975   3.474 -1.6210  0.8246 -0.5596
  290DG     H22 6669   2.565   1.146   3.734 -0.4768 -0.2554  0.8554
  290DG     H23 6670   2.701   1.148   3.610  2.6169 -1.0932  0.0408
  291DG      C1 6671   1.383   0.275   2.065 -0.2484 -0.1857 -0.9711
  291DG      C2 6672   1.093   0.675   2.137 -0.3449  0.6710  0.0355
  291DG      H3 6673   1.397   0.380   2.094  0.6904 -0.7865  0.8973
  291DG      H4 6674   1.485   0.237   2.068  1.1266  3.2091 -0.2011
  291DG      H5 6675   1.320   0.233   2.144 -0.6446 -0.3771 -1.3849
  291DG      H6 6676   1.101   0.623   2.232  2.3359 -0.8867 -0.9278
  291DG      H7 6677   1.076   0.782   2.154 -0.5376  0.6957 -0.2932
  291DG      H8 6678   1.002   0.638   2.091 -0.0149  0.3946 -0.4036
  291DG      O9 6679   1.322   0.249   1.939 -0.4799 -0.3702  0.1100
  291DG     O10 6680   1.201   0.633   2.052 -0.1262 -0.5671  0.6110
  291DG     C11 6681   1.400   0.287   1.824 -0.3852 -0.3345  0.3151
  291DG     C12 6682   1.230   0.712   1.943  0.3112  0.4612  0.9535
  291DG     H13 6683   1.337   0.257   1.740 -1.1650  1.7656  0.0910
  291DG     H14 6684   1.491   0.226   1.827  0.9149  1.3937 -1.5046
  291DG     H15 6685   1.262   0.810   1.978  1.5645  0.2913  0.3163
  291DG     H16 6686   1.153   0.713   1.865  0.2452  1.0809  1.0252
  291DG     C17 6687   1.439   0.434   1.815 -0.1113 -0.6425  0.1419
  291DG     C18 6688   1.356   0.649   1.881  0.7274  0.2340 -0.3611
  291DG     O19 6689   1.330   0.509   1.861 -0.2908 -0.0528 -0.1425
  291DG     H20 6690   1.484   0.454   1.718 -0.1332  0.3361  0.3186
  291DG     H21 6691   1.526   0.450   1.878 -0.4698  0.2675  0.4380
  291DG     H22 6692   1.373   0.699   1.786 -0.5633  1.4166 -0.0053
  291DG     H23 6693   1.443   0.672   1.942 -0.2470  1.6845  0.5402
  292DG      C1 6694   0.837   4.612   0.096 -0.7772  0.1665 -0.2503
  292DG      C2 6695   1.283   4.714   0.644  0.3134  0.0981  0.4187
  292DG      H3 6696   0.744   4.571   0.136 -0.9708  1.5760  0.8357
  292DG      H4 6697   0.842   4.598  -0.012  4.1652  0.4748 -0.2957
  292DG      H5 6698   0.837   4.721   0.105  1.9689  0.2169 -0.0151
  292DG      H6 6699   1.324   4.812   0.663  0.5647  0.3440 -1.2856
  292DG      H7 6700   1.174   4.709   0.654  0.0959 -0.5214 -1.7594
  292DG      H8 6701   1.332   4.662   0.726  0.4601  1.4963  1.2451
  292DG      O9 6702   0.953   4.543   0.146  0.5258 -0.4417  0.5813
  292DG     O10 6703   1.322   4.654   0.521 -0.9738 -0.3833  0.1352
  292DG     C11 6704   1.069   4.572   0.077 -0.1863  0.0485  0.4889
  292DG     C12 6705   1.259   4.528   0.499  0.1953 -0.0216  0.0121
  292DG     H13 6706   1.083   4.680   0.085  4.7083 -0.1814 -1.5198
  292DG     H14 6707   1.051   4.551  -0.029  3.1726  0.1694 -0.2348
  292DG     H15 6708   1.155   4.532   0.532 -0.4041  1.4141 -1.9291
  292DG     H16 6709   1.312   4.458   0.564 -0.0579 -1.0610 -0.8613
  292DG     C17 6710   1.195   4.510   0.138  0.0360 -0.0574  0.2262
  292DG     C18 6711   1.281   4.484   0.354  0.4338  0.4032  0.9903
  292DG     O19 6712   1.189   4.553   0.272 -0.3336  0.8691  0.0482
  292DG     H20 6713   1.288   4.555   0.101 -0.1480  0.1448  0.0028
  292DG     H21 6714   1.206   4.404   0.114  3.5918  0.4180 -0.8965
  292DG     H22 6715   1.382   4.499   0.317 -0.9866  1.3361 -2.9554
  292DG     H23 6716   1.257   4.380   0.332  2.6135 -0.3982  2.0956
  293DG      C1 6717   4.653   0.707   4.211 -0.0729  0.0401  0.1426
  293DG      C2 6718   4.468   0.145   4.546  0.0281  0.4599 -0.1708
  293DG      H3 6719   4.708   0.755   4.129 -1.4209 -0.6143 -1.2069
  293DG      H4 6720   4.662   0.750   4.310 -3.1086  2.0005 -0.2940
  293DG      H5 6721   4.547   0.712   4.184  0.1426 -0.9822 -1.0315
  293DG      H6 6722   4.464   0.046   4.591  0.7299  1.1471  1.4993
  293DG      H7 6723   4.441   0.204   4.634 -0.6646  1.1735 -0.8480
  293DG      H8 6724   4.382   0.157   4.480 -0.6224 -1.8281  0.1961
  293DG      O9 6725   4.682   0.571   4.232 -0.4319 -0.8882  0.3476
  293DG     O10 6726   4.587   0.190   4.490 -0.3768 -0.2234  0.2001
  293DG     C11 6727   4.675   0.499   4.109 -0.3738 -0.3365 -0.8481
  293DG     C12 6728   4.624   0.098   4.395 -0.2203 -0.5652  0.8595
  293DG     H13 6729   4.734   0.543   4.029  1.2603 -1.5757 -0.3722
  293DG     H14 6730   4.574   0.502   4.067 -0.9419 -2.0579  0.2569
  293DG     H15 6731   4.543   0.059   4.333 -0.6040  0.7962  0.4788
  293DG     H16 6732   4.661   0.005   4.438 -0.8547 -1.0499  0.3770
  293DG     C17 6733   4.729   0.351   4.131  0.4467  0.0543 -0.4154
  293DG     C18 6734   4.720   0.166   4.293 -0.5097 -0.3384  0.0039
  293DG     O19 6735   4.658   0.282   4.237 -0.4838 -0.2337 -0.3937
  293DG     H20 6736   4.837   0.355   4.143  0.4607 -0.5629 -0.3206
  293DG     H21 6737   4.717   0.294   4.039 -1.2433  0.4146 -0.4517
  293DG     H22 6738   4.815   0.182   4.343 -1.4731 -0.5436  1.9909
  293DG     H23 6739   4.741   0.092   4.215  0.9575  2.1308 -2.1024
  294DG      C1 6740   3.033   4.159   0.612 -0.0642  0.0041 -0.3185
  294DG      C2 6741   3.067   4.244   1.234 -0.3495 -0.0894  0.2821
  294DG      H3 6742   3.061   4.140   0.509 -1.6044  1.5852 -1.0859
  294DG      H4 6743   2.950   4.230   0.607 -0.4684 -0.5231 -1.3322
  294DG      H5 6744   2.993   4.075   0.668 -1.5238 -0.4209 -1.9219
  294DG      H6 6745   3.036   4.139   1.239  1.6048 -0.6657  1.2263
  294DG      H7 6746   3.097   4.267   1.336  0.5080  1.3592 -0.2702
  294DG      H8 6747   2.988   4.316   1.213 -0.2864  0.0634  0.5609
  294DG      O9 6748   3.150   4.208   0.687  1.1202  0.2489  0.3966
  294DG     O10 6749   3.170   4.274   1.142  0.1486  0.1855  0.1099
  294DG     C11 6750   3.255   4.118   0.697 -0.0555 -0.0834 -0.6006
  294DG     C12 6751   3.292   4.207   1.169 -0.3538  0.1848  0.9699
  294DG     H13 6752   3.297   4.106   0.597 -2.0997 -0.3280 -1.5016
  294DG     H14 6753   3.223   4.017   0.723  0.7451  0.5440  3.4017
  294DG     H15 6754   3.275   4.100   1.181  0.9229 -0.6225 -2.9692
  294DG     H16 6755   3.344   4.258   1.250  1.4584 -0.3700  0.1968
  294DG     C17 6756   3.361   4.166   0.802  0.2781  0.0773  0.2219
  294DG     C18 6757   3.373   4.222   1.038 -0.6178  0.1496  0.0091
  294DG     O19 6758   3.291   4.176   0.927 -0.3867 -0.1704  0.0675
  294DG     H20 6759   3.407   4.262   0.778  0.5112  0.0927  0.7336
  294DG     H21 6760   3.446   4.098   0.800  0.9940  0.9589 -0.1313
  294DG     H22 6761   3.394   4.329   1.030 -0.9499  0.2311  0.2206
  294DG     H23 6762   3.465   4.163   1.038 -0.6787  0.0515  0.8569
  295DG      C1 6763   3.100   2.612   1.152 -0.8080  0.3379 -0.1604
  295DG      C2 6764   2.612   2.667   1.190  0.6561  0.1937 -0.2560
  295DG      H3 6765   3.200   2.571   1.138  0.3367  3.0975 -0.6777
  295DG      H4 6766   3.064   2.583   1.250 -1.5087  1.0756 -0.1911
  295DG      H5 6767   3.108   2.720   1.140  0.8095  0.3202  0.4577
  295DG      H6 6768   2.593   2.769   1.224  2.0204  0.7175 -0.9967
  295DG      H7 6769   2.550   2.600   1.249 -0.3814  0.6376 -0.8057
  295DG      H8 6770   2.708   2.631   1.226 -0.5038 -0.4206  2.5411
  295DG      O9 6771   3.005   2.570   1.056 -0.0866  0.4551 -0.5034
  295DG     O10 6772   2.584   2.644   1.054 -0.2301 -0.2075  0.0967
  295DG     C11 6773   3.036   2.599   0.926 -0.0305 -0.4045  0.7048
  295DG     C12 6774   2.599   2.763   0.975  0.1910 -0.5991 -0.0860
  295DG     H13 6775   3.020   2.523   0.849 -0.4055  0.3201  0.0476
  295DG     H14 6776   3.144   2.612   0.927 -0.0322 -0.4060  1.0923
  295DG     H15 6777   2.526   2.838   1.007  1.4455  2.0002 -2.7712
  295DG     H16 6778   2.571   2.740   0.872 -1.2800 -0.4224  0.2514
  295DG     C17 6779   2.961   2.733   0.897  0.3966 -0.1836  0.7452
  295DG     C18 6780   2.750   2.807   0.963 -0.3879  0.1078  0.1354
  295DG     O19 6781   2.821   2.699   0.915 -0.1792 -0.6856  0.4935
  295DG     H20 6782   2.981   2.772   0.797 -1.8616 -2.9218 -0.9344
  295DG     H21 6783   3.006   2.804   0.966 -0.2444  1.2368 -0.2525
  295DG     H22 6784   2.754   2.896   0.900 -2.1763  0.5189  0.5623
  295DG     H23 6785   2.776   2.850   1.060 -3.0065  1.7649  0.1885
  296DG      C1 6786   2.922   5.208   2.135  0.2174  0.3851 -0.5311
  296DG      C2 6787   3.306   4.528   2.161 -0.1005  0.0082  0.2559
  296DG      H3 6788   2.859   5.147   2.199  2.8147 -2.2091 -0.2557
  296DG      H4 6789   2.867   5.241   2.047 -0.8006  1.1915  0.3674
  296DG      H5 6790   2.944   5.306   2.179  2.6310 -0.0380 -0.6715
  296DG      H6 6791   3.241   4.446   2.193 -0.4524  0.1470 -0.1035
  296DG      H7 6792   3.300   4.532   2.052  1.5049 -0.5069  0.1208
  296DG      H8 6793   3.406   4.498   2.193 -0.3973 -2.1064 -0.6187
  296DG      O9 6794   3.042   5.129   2.106  0.6573 -0.9275 -0.1073
  296DG     O10 6795   3.268   4.659   2.205  0.9276  0.1741 -0.0683
  296DG     C11 6796   3.021   4.998   2.053 -0.0820  0.2442  0.6220
  296DG     C12 6797   3.367   4.749   2.173 -0.1389 -0.3309  0.0612
  296DG     H13 6798   3.052   4.998   1.949 -0.0786 -0.6428  0.6096
  296DG     H14 6799   2.917   4.966   2.058 -0.8184  2.6063  1.7562
  296DG     H15 6800   3.385   4.745   2.065 -1.4688 -2.1872 -0.1371
  296DG     H16 6801   3.464   4.732   2.221  0.4358  3.4739  0.5503
  296DG     C17 6802   3.107   4.896   2.128 -0.2768 -0.4475  0.0533
  296DG     C18 6803   3.333   4.894   2.219 -0.4603 -0.0596 -0.2300
  296DG     O19 6804   3.238   4.954   2.124  0.4915  0.2543 -0.1472
  296DG     H20 6805   3.104   4.797   2.082 -1.0235  0.5020 -2.1030
  296DG     H21 6806   3.072   4.883   2.230 -0.3395 -2.4604 -0.1852
  296DG     H22 6807   3.295   4.900   2.321 -1.8490  0.0516 -0.7240
  296DG     H23 6808   3.426   4.947   2.203 -1.5439  1.6014 -1.3776
  297DG      C1 6809   0.014   3.253   1.357 -0.4218  0.0611 -0.1861
  297DG      C2 6810   0.284   3.707   0.844  0.4925 -0.0183  0.1040
  297DG      H3 6811   0.057   3.353   1.362 -0.8022  0.2950 -1.2878
  297DG      H4 6812   0.081   3.186   1.410 -1.4572 -0.0401  1.0494
  297DG      H5 6813  -0.088   3.238   1.392 -0.0781 -2.1028  0.0148
  297DG      H6 6814   0.291   3.698   0.735 -0.7550 -0.4683  0.0424
  297DG      H7 6815   0.212   3.785   0.869 -0.3991 -0.6328 -0.4915
  297DG      H8 6816   0.374   3.757   0.880  0.0241  1.8194 -1.1480
  297DG      O9 6817   0.042   3.203   1.229  0.0964 -0.0489 -0.1861
  297DG     O10 6818   0.260   3.573   0.895  0.3170  0.3400  0.2516
  297DG     C11 6819  -0.048   3.234   1.132  0.1682  0.2351 -0.4792
  297DG     C12 6820   0.236   3.561   1.028 -0.1613 -0.3243  0.2517
  297DG     H13 6821  -0.107   3.324   1.151  2.0627  1.5699 -0.6052
  297DG     H14 6822  -0.112   3.146   1.127 -0.5677  0.8125 -1.9258
  297DG     H15 6823   0.162   3.634   1.060  1.0463  2.3831 -2.6514
  297DG     H16 6824   0.335   3.580   1.070  0.5603 -0.8698 -1.1422
  297DG     C17 6825   0.022   3.253   1.000 -0.3914 -0.9258  0.3915
  297DG     C18 6826   0.186   3.419   1.063 -0.3986  0.4145  0.4689
  297DG     O19 6827   0.078   3.382   0.974  0.1068 -0.4094  0.2399
  297DG     H20 6828  -0.063   3.243   0.933 -0.2365  2.4890 -0.5295
  297DG     H21 6829   0.088   3.170   0.973  2.7105  0.3611  3.2635
  297DG     H22 6830   0.259   3.342   1.038 -0.2131  1.4055 -2.3563
  297DG     H23 6831   0.157   3.414   1.168 -0.2971  0.2360  0.4884
  298DG      C1 6832   1.738   2.645   2.217 -0.7615 -0.2286 -0.1341
  298DG      C2 6833   1.562   2.714   1.556  0.1721  0.1862  0.7013
  298DG      H3 6834   1.819   2.599   2.275  0.5120  1.5640 -0.3985
  298DG      H4 6835   1.652   2.578   2.221 -0.2880 -0.8014  0.7582
  298DG      H5 6836   1.712   2.738   2.269  4.1098  1.1477  0.3749
  298DG      H6 6837   1.503   2.782   1.495 -1.7251  0.4024  2.6606
  298DG      H7 6838   1.633   2.667   1.488  0.3985  1.6529 -0.1192
  298DG      H8 6839   1.494   2.639   1.596 -1.5605  0.2310 -1.9266
  298DG      O9 6840   1.779   2.682   2.089 -0.5183 -0.0538 -0.1433
  298DG     O10 6841   1.623   2.781   1.664 -0.2333  0.6018 -0.8244
  298DG     C11 6842   1.879   2.784   2.096 -1.4101  0.3468  0.7956
  298DG     C12 6843   1.748   2.837   1.642 -0.4144  0.5598 -0.2792
  298DG     H13 6844   1.965   2.740   2.147 -0.9450 -1.0115 -1.0397
  298DG     H14 6845   1.840   2.869   2.151 -2.4488  0.6274 -0.3293
  298DG     H15 6846   1.748   2.892   1.548  1.5324  0.3925 -0.4007
  298DG     H16 6847   1.818   2.754   1.637 -0.4906  0.2658  2.1248
  298DG     C17 6848   1.914   2.829   1.956  0.8520  0.0417  0.7042
  298DG     C18 6849   1.789   2.922   1.762  0.0155  0.0353 -0.5989
  298DG     O19 6850   1.784   2.847   1.888 -0.3498  0.4185  0.3753
  298DG     H20 6851   1.981   2.755   1.912  0.4756 -0.3690  0.8104
  298DG     H21 6852   1.975   2.919   1.946  1.8717 -0.8476 -2.3352
  298DG     H22 6853   1.880   2.978   1.739  0.9787 -1.3224 -0.2729
  298DG     H23 6854   1.717   3.003   1.766 -0.4244 -0.3572 -0.4008
  299DG      C1 6855   0.650   0.158   1.470 -0.0168  0.2051 -0.4232
  299DG      C2 6856   0.708   0.782   1.338  0.1080 -0.5313 -0.9290
  299DG      H3 6857   0.701   0.124   1.560  0.7328  1.1549 -0.4741
  299DG      H4 6858   0.623   0.071   1.411 -2.3023  0.7607 -0.2990
  299DG      H5 6859   0.560   0.201   1.515 -0.2573 -1.0269  0.3038
  299DG      H6 6860   0.698   0.876   1.284  0.8341 -0.4766 -0.9753
  299DG      H7 6861   0.641   0.787   1.424 -0.0343 -3.0679 -0.8085
  299DG      H8 6862   0.808   0.769   1.379 -0.4717 -1.4109  0.2611
  299DG      O9 6863   0.715   0.257   1.398  0.0341 -0.2462 -0.3524
  299DG     O10 6864   0.667   0.676   1.253 -0.0414 -0.1586  0.4089
  299DG     C11 6865   0.830   0.216   1.329 -0.2986 -0.1940 -0.1934
  299DG     C12 6866   0.755   0.662   1.141 -0.2226 -0.3725  0.5991
  299DG     H13 6867   0.816   0.149   1.244  1.8335 -2.1233  0.8586
  299DG     H14 6868   0.894   0.154   1.392 -0.8622 -0.9612 -0.3554
  299DG     H15 6869   0.799   0.752   1.098  1.3835 -1.3868  0.0166
  299DG     H16 6870   0.686   0.625   1.066  0.2362  0.7924 -0.4272
  299DG     C17 6871   0.903   0.343   1.283 -0.4290 -0.2226  0.2578
  299DG     C18 6872   0.863   0.554   1.184 -0.3955  0.3897  0.4066
  299DG     O19 6873   0.810   0.434   1.220 -0.2980  0.6103  0.0357
  299DG     H20 6874   0.979   0.308   1.213 -0.1960  2.9488 -1.2261
  299DG     H21 6875   0.958   0.385   1.367 -0.2906  3.1670 -1.3606
  299DG     H22 6876   0.926   0.532   1.098 -1.9446 -0.1884 -0.6245
  299DG     H23 6877   0.923   0.590   1.268 -2.7065  0.3841  2.1650
  300DG      C1 6878   4.144   4.263   2.324  0.1969  0.3006 -0.3804
  300DG      C2 6879   3.623   4.053   2.975  0.1365 -0.7043  0.1546
  300DG      H3 6880   4.189   4.361   2.345 -2.7363  1.6454  0.0808
  300DG      H4 6881   4.048   4.294   2.284  0.3155  1.3775  0.1417
  300DG      H5 6882   4.202   4.204   2.253 -0.3381 -1.9027  0.9394
  300DG      H6 6883   3.540   4.115   3.008  1.6785  1.0363  0.9033
  300DG      H7 6884   3.597   3.948   2.992  0.0560 -0.7517 -0.2544
  300DG      H8 6885   3.689   4.070   3.060  1.8144  0.2982 -1.2852
  300DG      O9 6886   4.114   4.184   2.438  0.3735  0.0899  0.0063
  300DG     O10 6887   3.678   4.080   2.852  0.3688 -0.7939 -0.2670
  300DG     C11 6888   4.060   4.257   2.553  0.1025 -0.5800 -0.5300
  300DG     C12 6889   3.724   4.211   2.819 -0.1567 -0.6123  0.0730
  300DG     H13 6890   3.992   4.336   2.521  0.5640 -0.6521 -1.7407
  300DG     H14 6891   4.136   4.325   2.591  1.2533 -2.4008  0.5717
  300DG     H15 6892   3.805   4.239   2.887  1.4776  2.7707 -2.9366
  300DG     H16 6893   3.642   4.280   2.835 -0.3818 -1.2183  1.8083
  300DG     C17 6894   4.002   4.172   2.673 -0.0311  0.4524 -0.7876
  300DG     C18 6895   3.779   4.217   2.673 -0.4455  0.3082 -0.1408
  300DG     O19 6896   3.876   4.122   2.648  0.0116 -0.0590 -0.2427
  300DG     H20 6897   4.000   4.230   2.766  0.0148  1.9489 -1.6979
  300DG     H21 6898   4.066   4.084   2.690  1.2270  1.3870 -0.5228
  300DG     H22 6899   3.705   4.194   2.597 -1.7104  1.8338  0.5777
  300DG     H23 6900   3.820   4.315   2.647  1.0897 -0.2805 -0.0640
  301THF     O1 6901   0.909   1.731   4.798 -0.3848  0.0856  0.0310
  301THF     C2 6902   0.873   1.817   4.901  0.3397 -0.4712  0.2019
  301THF     C3 6903   0.951   1.605   4.863  0.0875 -0.1057  0.6532
  301THF     H4 6904   0.771   1.808   4.938 -0.3855 -0.2821 -1.6272
  301THF     H5 6905   0.888   1.923   4.882 -0.5992 -0.1672  1.0694
  301THF     H6 6906   0.862   1.544   4.880 -0.9981  1.2404 -0.0098
  301THF     H7 6907   1.031   1.562   4.803  1.5359  3.3615 -0.1422
  301THF     C8 6908   1.015   1.644   4.993 -0.0553 -0.7150 -0.7644
  301THF     C9 6909   0.974   1.785   5.008  0.3388 -0.6386 -0.4710
  301THF    H10 6910   1.123   1.640   4.997 -0.0465 -0.1588 -0.2762
  301THF    H11 6911   0.977   1.577   5.070  0.9880  0.4635  0.8169
  301THF    H12 6912   0.929   1.802   5.106  1.5653 -0.7736  0.1218
  301THF    H13 6913   1.061   1.849   5.000  0.9467 -0.9217  2.7144
  302THF     O1 6914   3.557   2.009   0.554 -0.0020 -0.0820 -0.0990
  302THF     C2 6915   3.422   2.036   0.518  0.4919 -0.3576 -0.5429
  302THF     C3 6916   3.572   2.046   0.689  0.2187 -0.2715  0.2150
  302THF     H4 6917   3.401   1.991   0.421 -0.1569 -1.5641  0.1319
  302THF     H5 6918   3.409   2.144   0.530  2.5198 -0.4009  4.3999
  302THF     H6 6919   3.668   2.015   0.728 -0.4898 -0.2572  2.0301
  302THF     H7 6920   3.560   2.154   0.697  3.2660  0.1463  0.2390
  302THF     C8 6921   3.452   1.975   0.746 -0.2997 -0.1888 -0.1279
  302THF     C9 6922   3.361   1.958   0.628  0.0974 -0.1925  0.3864
  302THF    H10 6923   3.419   2.042   0.826  1.4995  2.8944 -1.7961
  302THF    H11 6924   3.485   1.876   0.776 -1.5420 -1.1178 -1.7307
  302THF    H12 6925   3.362   1.851   0.611  1.7296 -0.0053 -1.0369
  302THF    H13 6926   3.260   1.991   0.651 -0.8784 -0.1050 -3.4024
  303THF     O1 6927   1.177   2.345   2.172  0.0571 -0.1452  0.8720
  303THF     C2 6928   1.203   2.215   2.128  0.1440  0.0420  0.3352
  303THF     C3 6929   1.291   2.403   2.242 -0.5996  0.4199  0.2545
  303THF     H4 6930   1.226   2.203   2.022  3.6923  1.7862  0.7605
  303THF     H5 6931   1.126   2.141   2.147  1.1625 -1.3508 -0.7013
  303THF     H6 6932   1.360   2.443   2.167 -0.8697  2.7572  1.1565
  303THF     H7 6933   1.264   2.486   2.307  0.6603  2.4878 -1.6938
  303THF     C8 6934   1.345   2.275   2.310 -0.7761  0.0781 -0.1841
  303THF     C9 6935   1.319   2.159   2.214 -0.3657  0.9668  0.5857
  303THF    H10 6936   1.286   2.261   2.400 -0.0976  0.5462  0.3465
  303THF    H11 6937   1.445   2.286   2.352  0.0276  0.0084 -1.9757
  303THF    H12 6938   1.407   2.141   2.152 -0.9536 -2.5152  0.5226
  303THF    H13 6939   1.302   2.067   2.270  2.5850  1.1270  1.8873
  304THF     O1 6940   2.329   2.636   2.625  0.2202  0.2144  0.0347
  304THF     C2 6941   2.219   2.591   2.548 -0.0959  0.2235 -0.4186
  304THF     C3 6942   2.307   2.766   2.675 -0.1897 -0.0336  1.0249
  304THF     H4 6943   2.134   2.547   2.599 -0.2456 -3.0602 -3.1799
  304THF     H5 6944   2.243   2.519   2.469  0.3412  0.7293 -0.7551
  304THF     H6 6945   2.255   2.765   2.771 -0.5402  1.1799  0.8593
  304THF     H7 6946   2.406   2.806   2.698  0.1285 -1.0374  1.4546
  304THF     C8 6947   2.223   2.830   2.566  0.3183  0.7111 -0.2308
  304THF     C9 6948   2.165   2.716   2.485 -0.1655 -0.2144 -0.7689
  304THF    H10 6949   2.284   2.900   2.509  0.0625  1.2161  0.1102
  304THF    H11 6950   2.140   2.893   2.599  1.7775  1.2391  2.7635
  304THF    H12 6951   2.060   2.735   2.465 -0.3394  0.0387  0.3305
  304THF    H13 6952   2.214   2.721   2.388  1.4154 -1.1035 -0.0643
  305THF     O1 6953   0.009   0.558   4.234  0.2092  0.3238  0.4936
  305THF     C2 6954  -0.119   0.580   4.275 -0.3032 -0.5413 -0.3934
  305THF     C3 6955   0.007   0.560   4.097  0.0626  0.5284 -0.7475
  305THF     H4 6956  -0.143   0.685   4.254  0.7356 -0.4583 -1.2669
  305THF     H5 6957  -0.122   0.567   4.383  2.9131 -1.1770 -0.2850
  305THF     H6 6958   0.008   0.661   4.056 -0.8837  0.0380 -2.0327
  305THF     H7 6959   0.094   0.512   4.053 -0.1124 -0.9420  0.4236
  305THF     C8 6960  -0.124   0.493   4.061 -0.5611  0.1612 -0.2294
  305THF     C9 6961  -0.200   0.488   4.194  0.6270 -0.3008  0.1812
  305THF    H10 6962  -0.108   0.394   4.018  1.4552  1.6757 -3.3160
  305THF    H11 6963  -0.178   0.535   3.975  1.8365  0.7650 -1.5325
  305THF    H12 6964  -0.302   0.524   4.187  0.5286 -0.7928 -1.3439
  305THF    H13 6965  -0.200   0.388   4.238 -1.1966 -0.4968 -0.1854
  306THF     O1 6966   3.314   3.437   1.224  0.2854  1.1168 -0.4862
  306THF     C2 6967   3.261   3.475   1.351 -0.4349 -1.1247 -0.4428
  306THF     C3 6968   3.223   3.351   1.153 -0.1213  0.6509  0.0324
  306THF     H4 6969   3.210   3.571   1.336  0.5111 -0.6219 -0.5368
  306THF     H5 6970   3.339   3.500   1.423 -0.4415 -4.4554  0.8637
  306THF     H6 6971   3.188   3.381   1.054 -0.6578 -1.0422 -0.3172
  306THF     H7 6972   3.276   3.256   1.147 -2.6037 -0.7447 -0.9730
  306THF     C8 6973   3.103   3.354   1.246  0.4425  0.3723  0.3236
  306THF     C9 6974   3.156   3.366   1.382 -0.4106  0.9398 -0.3957
  306THF    H10 6975   3.045   3.263   1.232  0.4545  0.5983 -1.4052
  306THF    H11 6976   3.034   3.434   1.217  1.3794  1.7339  1.7124
  306THF    H12 6977   3.086   3.392   1.462  0.7841  0.6678  0.7748
  306THF    H13 6978   3.203   3.273   1.415 -2.2585  0.0766 -0.0833
  307THF     O1 6979   2.256   1.943   0.896  0.1141 -0.0745 -0.4256
  307THF     C2 6980   2.138   2.018   0.915 -0.0679  0.1794  1.1094
  307THF     C3 6981   2.227   1.810   0.868 -0.0662  0.0625 -0.5866
  307THF     H4 6982   2.135   2.085   0.829  1.4560 -0.9984  0.0818
  307THF     H5 6983   2.140   2.077   1.007 -1.2551  0.1874  1.1424
  307THF     H6 6984   2.287   1.777   0.783 -1.4622  2.3245 -2.5886
  307THF     H7 6985   2.252   1.749   0.955 -1.4415  0.4500  0.1136
  307THF     C8 6986   2.079   1.796   0.840  0.1571 -0.3559  0.5863
  307THF     C9 6987   2.018   1.917   0.911  0.2137  0.5451 -0.6864
  307THF    H10 6988   2.044   1.700   0.878 -2.0471  0.5769  1.0752
  307THF    H11 6989   2.074   1.795   0.731  0.7491 -1.4473  0.5595
  307THF    H12 6990   1.925   1.950   0.863 -1.1491  0.4082  1.7210
  307THF    H13 6991   1.985   1.893   1.012 -2.6302 -0.7841 -1.8265
  308THF     O1 6992   0.409   1.287   0.255  0.0770  0.1349 -0.4358
  308THF     C2 6993   0.288   1.318   0.192 -0.5067  0.0003 -0.3731
  308THF     C3 6994   0.385   1.285   0.394 -0.1895 -0.3223 -0.7081
  308THF     H4 6995   0.214   1.238   0.195 -0.0507 -0.4138  1.5722
  308THF     H5 6996   0.308   1.335   0.086 -0.6176  0.7712 -0.2761
  308THF     H6 6997   0.353   1.184   0.420 -2.2374  0.3696 -0.3728
  308THF     H7 6998   0.463   1.303   0.469 -1.9133  0.5141  0.9796
  308THF     C8 6999   0.274   1.398   0.411  0.1702 -0.0179 -0.1166
  308THF     C9 7000   0.237   1.433   0.271  0.3529  0.0875 -0.0212
  308THF    H10 7001   0.299   1.489   0.465  1.4167 -0.0933 -0.5341
  308THF    H11 7002   0.183   1.360   0.458  0.2090  1.2006  0.9894
  308THF    H12 7003   0.129   1.446   0.255  0.7532  2.8089 -1.1978
  308THF    H13 7004   0.275   1.529   0.236  0.4807  0.0168 -0.0760
  309THF     O1 7005   1.482   4.321   3.311  0.1215 -0.6550  0.1542
  309THF     C2 7006   1.461   4.449   3.250  0.3005 -0.2610 -0.0136
  309THF     C3 7007   1.413   4.221   3.236  0.0486 -0.5680  0.0689
  309THF     H4 7008   1.526   4.521   3.300  1.9499 -2.2064  0.7995
  309THF     H5 7009   1.358   4.475   3.272  0.4356 -0.5141  0.9473
  309THF     H6 7010   1.457   4.122   3.251  2.4446  0.0435 -2.1242
  309THF     H7 7011   1.308   4.217   3.265 -0.6442  0.4281 -2.1128
  309THF     C8 7012   1.417   4.278   3.095 -0.0055 -0.3923  0.3930
  309THF     C9 7013   1.490   4.410   3.107 -0.1989 -0.4793 -0.4907
  309THF    H10 7014   1.318   4.298   3.057  1.1052  1.0878 -1.9274
  309THF    H11 7015   1.467   4.201   3.035 -1.5428 -1.5326  0.5283
  309THF    H12 7016   1.598   4.410   3.098 -0.3319  0.5021 -2.6753
  309THF    H13 7017   1.449   4.486   3.041  0.7310  0.1579 -0.3468
  310THF     O1 7018   5.282   2.684   1.072  0.4087  0.5585 -0.1364
  310THF     C2 7019   5.186   2.786   1.041  0.0828 -0.0766 -0.2326
  310THF     C3 7020   5.397   2.709   0.995 -0.1560  0.0053  0.4522
  310THF     H4 7021   5.118   2.795   1.126 -0.0549 -0.1200 -0.3388
  310THF     H5 7022   5.122   2.764   0.956  0.5136  0.5704 -0.7359
  310THF     H6 7023   5.485   2.661   1.038  0.6839  2.2806  1.4010
  310THF     H7 7024   5.384   2.681   0.891 -0.9531  0.1352  0.5135
  310THF     C8 7025   5.413   2.858   0.999  0.4489 -0.6360  0.4039
  310THF     C9 7026   5.273   2.906   1.038 -0.3891  0.0560 -0.4051
  310THF    H10 7027   5.448   2.893   0.903 -2.0064  0.0895 -0.3065
  310THF    H11 7028   5.488   2.894   1.069  0.0606 -2.3269  1.7744
  310THF    H12 7029   5.279   2.949   1.138  3.1055 -1.4678  0.1967
  310THF    H13 7030   5.235   2.974   0.961 -0.1094  0.3347 -0.2985
  311THF     O1 7031   0.601   5.239   3.839 -0.5528  0.2523  0.1094
  311THF     C2 7032   0.630   5.107   3.792 -0.3766 -0.1857 -0.5202
  311THF     C3 7033   0.659   5.329   3.748  0.0127 -0.6284  0.4590
  311THF     H4 7034   0.534   5.063   3.763 -1.7656  1.1622  1.6979
  311THF     H5 7035   0.662   5.046   3.877  0.0424 -0.4911 -0.8974
  311THF     H6 7036   0.593   5.415   3.737 -0.0732 -0.5694  1.3600
  311THF     H7 7037   0.758   5.357   3.784  0.3759 -0.8978 -0.3009
  311THF     C8 7038   0.679   5.255   3.615 -0.1014 -0.1776  0.1545
  311THF     C9 7039   0.725   5.125   3.671  0.5135  0.0258 -0.0517
  311THF    H10 7040   0.752   5.300   3.548 -1.5605  1.4637 -0.4025
  311THF    H11 7041   0.587   5.236   3.560 -0.1911  0.0027  0.2414
  311THF    H12 7042   0.719   5.046   3.596 -1.3872  1.2679 -1.2964
  311THF    H13 7043   0.829   5.125   3.702  0.4838 -0.8913  0.0869
  312THF     O1 7044   2.723   3.640   2.054 -0.1769  0.3769  0.2353
  312THF     C2 7045   2.757   3.638   2.193 -0.0991  0.0426 -0.2316
  312THF     C3 7046   2.712   3.506   2.015  0.1169  0.1259 -0.0643
  312THF     H4 7047   2.732   3.728   2.249  0.9436  0.1213  0.1375
  312THF     H5 7048   2.865   3.625   2.200 -0.1770 -2.7870 -2.2807
  312THF     H6 7049   2.651   3.513   1.925  0.7211 -0.0317 -0.4919
  312THF     H7 7050   2.805   3.456   1.987 -0.0353 -0.0215 -0.3149
  312THF     C8 7051   2.645   3.437   2.126  0.2721  0.2086  0.1919
  312THF     C9 7052   2.697   3.511   2.250 -0.4379  0.8898  0.2715
  312THF    H10 7053   2.658   3.331   2.101 -0.9941  0.3712 -1.3724
  312THF    H11 7054   2.537   3.453   2.130 -0.2947 -2.5375 -1.3372
  312THF    H12 7055   2.618   3.544   2.317 -0.7388 -1.2820  1.0357
  312THF    H13 7056   2.770   3.455   2.307  0.3860  0.1695 -1.4055
  313THF     O1 7057   0.798   2.487   1.966 -0.2763 -0.4299  0.1901
  313THF     C2 7058   0.737   2.391   1.879  0.5294 -0.7280  0.7014
  313THF     C3 7059   0.939   2.469   1.975  0.2075 -0.0743 -0.5715
  313THF     H4 7060   0.661   2.445   1.822 -0.7211 -2.1501  0.9460
  313THF     H5 7061   0.683   2.317   1.938 -2.1278  0.1904 -0.3981
  313THF     H6 7062   0.986   2.563   1.946 -0.1060  0.3972  0.4116
  313THF     H7 7063   0.964   2.445   2.078 -1.0072 -2.1482 -0.7173
  313THF     C8 7064   0.976   2.346   1.888 -0.6714 -0.4166  0.3414
  313THF     C9 7065   0.850   2.344   1.794 -0.4323  0.5517  0.1571
  313THF    H10 7066   0.987   2.252   1.941 -2.5214 -0.8335  0.0717
  313THF    H11 7067   1.067   2.359   1.830 -0.4251 -2.1123  0.3125
  313THF    H12 7068   0.866   2.396   1.699 -0.5623 -0.3694 -0.3809
  313THF    H13 7069   0.833   2.240   1.767 -1.6302  0.6978  0.3078
  314THF     O1 7070   0.371   2.989   4.264  0.2979 -0.0151  0.2711
  314THF     C2 7071   0.493   2.916   4.268  0.0818 -0.8518 -0.5247
  314THF     C3 7072   0.366   3.051   4.137  0.4829  0.7302 -0.8757
  314THF     H4 7073   0.478   2.839   4.344 -0.4118  1.1973  1.5681
  314THF     H5 7074   0.585   2.972   4.284 -0.6193  0.5707 -1.2511
  314THF     H6 7075   0.273   3.095   4.102 -1.1330 -1.9938 -0.2896
  314THF     H7 7076   0.447   3.124   4.132 -0.4853  2.0726  1.4103
  314THF     C8 7077   0.409   2.938   4.048  0.4890  0.2524  0.3136
  314THF     C9 7078   0.506   2.860   4.133 -0.2017 -0.6375  0.7808
  314THF    H10 7079   0.456   2.969   3.954  1.2437  1.4206  1.0451
  314THF    H11 7080   0.329   2.872   4.017 -0.0932  1.9913 -2.2065
  314THF    H12 7081   0.475   2.757   4.149  1.2561 -1.0303  1.1592
  314THF    H13 7082   0.606   2.873   4.093 -1.1940  2.5889 -1.0723
  315THF     O1 7083   2.155   0.165   1.809 -0.2026 -0.3429 -0.2892
  315THF     C2 7084   2.251   0.189   1.713  0.7540  0.7133  0.0434
  315THF     C3 7085   2.182   0.049   1.881 -0.2440  0.9099  0.2526
  315THF     H4 7086   2.266   0.296   1.699 -1.1654  0.8184 -1.6613
  315THF     H5 7087   2.223   0.150   1.616 -1.4459 -1.3347  1.3928
  315THF     H6 7088   2.140   0.038   1.981 -0.3035  0.3320  0.1717
  315THF     H7 7089   2.147  -0.041   1.829  1.5199  0.5938 -0.4704
  315THF     C8 7090   2.334   0.048   1.903  0.5401  0.2434  0.4438
  315THF     C9 7091   2.371   0.113   1.765 -0.0700  0.9031 -0.1202
  315THF    H10 7092   2.369  -0.050   1.936 -0.3021 -1.0654 -2.2437
  315THF    H11 7093   2.363   0.115   1.984 -2.2880  0.1692  1.6438
  315THF    H12 7094   2.453   0.184   1.777  0.3683  0.5524 -0.9551
  315THF    H13 7095   2.399   0.038   1.691  0.5144 -2.0798  2.8887
  316THF     O1 7096   2.957   1.344   5.348  0.1874  0.1193 -0.2609
  316THF     C2 7097   3.063   1.401   5.426  0.2963 -0.0129 -1.1259
  316THF     C3 7098   2.916   1.228   5.418 -0.5317  0.5342 -0.2770
  316THF     H4 7099   3.030   1.463   5.509  2.3820 -1.0848  0.6169
  316THF     H5 7100   3.137   1.457   5.370  0.2673  0.7797 -0.3877
  316THF     H6 7101   2.809   1.232   5.439 -0.5205  0.5940 -0.2308
  316THF     H7 7102   2.939   1.156   5.340 -1.3529  1.8342 -1.7722
  316THF     C8 7103   3.008   1.210   5.546 -1.1315  0.6057  0.8266
  316THF     C9 7104   3.133   1.285   5.506 -0.7746  0.3860 -0.8855
  316THF    H10 7105   3.032   1.107   5.571  1.7502  1.1082  0.5520
  316THF    H11 7106   2.962   1.253   5.634  1.5305  1.4009  1.9326
  316THF    H12 7107   3.199   1.330   5.580  0.4832 -2.5725 -0.0692
  316THF    H13 7108   3.203   1.223   5.451 -0.1442 -0.7232  1.0713
  317THF     O1 7109   0.867   0.036   3.551 -0.3043  0.5646  0.3036
  317THF     C2 7110   0.863   0.135   3.448 -1.2621  0.0301 -0.1556
  317THF     C3 7111   0.838   0.111   3.670 -0.5307  0.3618  0.6473
  317THF     H4 7112   0.758   0.154   3.428 -0.8868  0.1332 -2.1772
  317THF     H5 7113   0.903   0.095   3.355 -1.1544  0.6229 -0.3642
  317THF     H6 7114   0.729   0.111   3.672 -0.5969 -1.6117 -0.3499
  317THF     H7 7115   0.869   0.049   3.755 -2.4892  0.5169  1.5581
  317THF     C8 7116   0.911   0.245   3.663  0.2853 -0.0916 -0.8573
  317THF     C9 7117   0.930   0.262   3.509  0.1318  0.0349 -0.9566
  317THF    H10 7118   1.001   0.247   3.724 -1.0599  1.2846  1.2195
  317THF    H11 7119   0.844   0.319   3.706  0.7923  0.8202 -1.6045
  317THF    H12 7120   0.878   0.350   3.473  0.3555  0.9727  0.8991
  317THF    H13 7121   1.036   0.280   3.488  0.2689 -0.0146 -0.3403
  318THF     O1 7122   4.744   1.426   2.461 -0.5365  0.6860 -0.0121
  318THF     C2 7123   4.780   1.540   2.535  0.3508 -0.6206 -0.2696
  318THF     C3 7124   4.865   1.354   2.414  0.3535  0.1400  0.2641
  318THF     H4 7125   4.700   1.572   2.601 -1.1340  1.4190 -2.8598
  318THF     H5 7126   4.785   1.630   2.474 -3.6457 -0.4652 -0.5892
  318THF     H6 7127   4.854   1.246   2.402  1.7229  0.0551 -0.5384
  318THF     H7 7128   4.901   1.407   2.326 -0.7978  0.1111 -0.2431
  318THF     C8 7129   4.955   1.366   2.538  0.3896  0.1808 -0.2375
  318THF     C9 7130   4.918   1.506   2.597  0.3638  0.0969  0.4265
  318THF    H10 7131   5.061   1.339   2.531  0.1871 -0.5010 -0.9460
  318THF    H11 7132   4.913   1.293   2.608 -2.6159  0.5054 -1.5588
  318THF    H12 7133   4.903   1.486   2.703 -0.7974 -0.1634  0.2211
  318THF    H13 7134   4.986   1.591   2.585  0.5622  0.1703  1.8616
  319THF     O1 7135   0.892   3.862   1.772  0.0615  0.0860  0.5863
  319THF     C2 7136   0.783   3.799   1.698 -0.5347 -0.6807  0.5371
  319THF     C3 7137   1.010   3.798   1.737  0.7243 -0.9948 -0.3010
  319THF     H4 7138   0.764   3.865   1.613 -1.1181 -0.3231  0.9376
  319THF     H5 7139   0.696   3.791   1.763 -1.2885  0.9320 -0.2116
  319THF     H6 7140   1.064   3.858   1.664 -2.0184  0.8693 -0.9841
  319THF     H7 7141   1.067   3.788   1.829 -1.6440  1.0853  1.5119
  319THF     C8 7142   0.974   3.663   1.689  0.7443 -0.2241  0.2884
  319THF     C9 7143   0.830   3.668   1.646  0.3770  0.6059  0.2108
  319THF    H10 7144   0.977   3.594   1.774  0.7024  0.1848  0.6234
  319THF    H11 7145   1.035   3.626   1.607  0.9465  3.9053 -1.6568
  319THF    H12 7146   0.830   3.666   1.537  0.3219 -1.2081  0.2091
  319THF    H13 7147   0.781   3.575   1.674  2.7902 -0.9741 -0.5726
  320THF     O1 7148   3.637   0.539   3.812 -0.0070  0.2078  0.6933
  320THF     C2 7149   3.600   0.547   3.670 -0.3396  0.3709 -0.0261
  320THF     C3 7150   3.529   0.467   3.868  0.3296  0.3783  0.1796
  320THF     H4 7151   3.603   0.447   3.626  0.3656  0.6439 -0.6363
  320THF     H5 7152   3.675   0.596   3.607  0.9147  0.7031  1.6413
  320THF     H6 7153   3.555   0.361   3.877 -2.0462 -0.2469  0.4202
  320THF     H7 7154   3.495   0.501   3.966 -1.1437 -1.2356  0.2777
  320THF     C8 7155   3.402   0.492   3.781 -0.0081 -0.4941 -0.6928
  320THF     C9 7156   3.453   0.591   3.671  0.3307 -0.3605 -0.1413
  320THF    H10 7157   3.319   0.518   3.846  0.5318  0.1942 -0.2669
  320THF    H11 7158   3.370   0.398   3.735 -2.7406 -0.3317  0.6783
  320THF    H12 7159   3.409   0.573   3.573  0.5425 -0.1717 -0.2714
  320THF    H13 7160   3.435   0.694   3.702  2.5052 -0.3683  1.3969
  321THF     O1 7161   3.037   3.077   3.710  0.2191  0.6391 -0.4522
  321THF     C2 7162   3.161   3.055   3.645  0.5750  0.4565 -0.6887
  321THF     C3 7163   2.981   3.198   3.661  0.2752 -0.5672  0.0314
  321THF     H4 7164   3.198   2.954   3.658 -0.5423  0.1731  0.4550
  321THF     H5 7165   3.239   3.113   3.694  0.8657 -2.0613  2.1077
  321THF     H6 7166   2.873   3.207   3.675  0.1912  0.4278 -1.0225
  321THF     H7 7167   3.029   3.284   3.707 -0.8789  0.6408 -0.9268
  321THF     C8 7168   3.015   3.189   3.515  0.7250 -0.3071 -0.5290
  321THF     C9 7169   3.130   3.092   3.507 -0.3273  0.2795 -0.1929
  321THF    H10 7170   3.053   3.281   3.471  1.1483 -0.2353 -0.0221
  321THF    H11 7171   2.929   3.148   3.462 -0.1629  1.3014 -0.3844
  321THF    H12 7172   3.100   3.001   3.456  0.9105 -0.6133  0.5929
  321THF    H13 7173   3.221   3.129   3.460 -1.4557 -0.0219 -2.7580
  322THF     O1 7174   2.454   1.552   1.695  0.9247 -0.1747  0.1168
  322THF     C2 7175   2.457   1.451   1.598 -0.5349  0.2148 -0.2423
  322THF     C3 7176   2.376   1.512   1.810 -0.3308 -0.0848  0.5332
  322THF     H4 7177   2.565   1.447   1.585 -0.1766  0.1981  2.3521
  322THF     H5 7178   2.408   1.489   1.508  2.4835  0.6949 -1.8311
  322THF     H6 7179   2.439   1.475   1.892 -1.1215  2.7024  2.5512
  322THF     H7 7180   2.315   1.588   1.858  0.4464  0.3224  0.8960
  322THF     C8 7181   2.296   1.390   1.760  0.2201 -0.4764 -0.1269
  322THF     C9 7182   2.388   1.321   1.663  0.0636 -0.3912  0.3440
  322THF    H10 7183   2.212   1.444   1.716 -0.6658  0.6047  2.6838
  322THF    H11 7184   2.269   1.313   1.833  1.0983 -0.6689  0.0022
  322THF    H12 7185   2.468   1.267   1.713  1.3722  0.7943 -0.4109
  322THF    H13 7186   2.329   1.261   1.592 -0.0265 -1.3571  1.2069
  323THF     O1 7187   1.201   3.062   3.032 -0.1845  0.2030  0.1075
  323THF     C2 7188   1.313   2.982   3.070 -0.7673 -0.1761 -0.5732
  323THF     C3 7189   1.129   2.990   2.948 -0.4371  0.7106 -0.2128
  323THF     H4 7190   1.361   3.022   3.160 -2.4526 -0.3506  0.4477
  323THF     H5 7191   1.393   2.982   2.996  0.5975  1.4231  0.8101
  323THF     H6 7192   1.030   3.032   2.926 -2.4381 -4.3969 -2.8160
  323THF     H7 7193   1.184   2.969   2.856  0.0922 -0.8644  0.4314
  323THF     C8 7194   1.111   2.855   3.023 -0.2166  0.3176 -0.2334
  323THF     C9 7195   1.249   2.848   3.094 -0.5569 -0.8739 -0.3341
  323THF    H10 7196   1.096   2.765   2.963  2.2289  0.7855 -1.6996
  323THF    H11 7197   1.033   2.863   3.098  0.1593  2.8444 -0.0476
  323THF    H12 7198   1.247   2.828   3.201  1.4446 -0.2715 -0.1352
  323THF    H13 7199   1.304   2.763   3.052 -0.0288 -0.2745 -0.8882
  324THF     O1 7200   3.959   0.404   0.154  0.2003  0.3640  0.6720
  324THF     C2 7201   4.093   0.386   0.194  0.2421 -0.5881 -0.5439
  324THF     C3 7202   3.878   0.449   0.259 -0.1987 -0.6010 -0.7525
  324THF     H4 7203   4.166   0.402   0.116 -0.5226  0.6200 -1.0468
  324THF     H5 7204   4.116   0.290   0.242  0.2143  0.1624  1.0259
  324THF     H6 7205   3.787   0.488   0.214 -1.6041 -0.6887  1.8079
  324THF     H7 7206   3.855   0.384   0.344  1.2340 -2.2137 -1.5505
  324THF     C8 7207   3.973   0.555   0.310  0.4277  0.6255  0.4194
  324THF     C9 7208   4.106   0.494   0.304  0.0021 -0.3683 -0.0559
  324THF    H10 7209   3.950   0.557   0.417 -0.3313 -0.8682  0.3074
  324THF    H11 7210   3.966   0.645   0.249  0.6541 -0.6006 -1.4886
  324THF    H12 7211   4.178   0.569   0.271 -0.1943  0.5921  1.5589
  324THF    H13 7212   4.120   0.446   0.401 -1.5081  0.2774  0.5107
  325THF     O1 7213   4.943   3.025   0.284  0.1192 -0.2547  0.4945
  325THF     C2 7214   4.891   2.897   0.242 -0.3470 -0.4979 -0.3136
  325THF     C3 7215   4.841   3.067   0.382  0.0848 -0.3990  0.0695
  325THF     H4 7216   4.955   2.828   0.296  1.3638 -0.7921 -2.5886
  325THF     H5 7217   4.907   2.892   0.135  0.2116  0.7341 -0.2998
  325THF     H6 7218   4.851   3.008   0.472 -0.9029 -0.1650  0.3458
  325THF     H7 7219   4.859   3.172   0.405  0.9839  0.1311 -2.5972
  325THF     C8 7220   4.714   3.041   0.303  0.3872 -1.1410 -0.3526
  325THF     C9 7221   4.739   2.897   0.267 -0.5322  0.7404 -0.3877
  325THF    H10 7222   4.707   3.104   0.215  0.9646  0.2266  0.5542
  325THF    H11 7223   4.625   3.064   0.361  1.0987  1.7701 -0.2512
  325THF    H12 7224   4.707   2.822   0.340  2.4670  0.1286  0.4406
  325THF    H13 7225   4.678   2.863   0.184  2.3325  0.7400 -2.6309
  326THF     O1 7226   2.671   2.188   3.642  0.5355  0.2571 -0.6696
  326THF     C2 7227   2.535   2.225   3.622 -0.0442 -0.2251 -0.1645
  326THF     C3 7228   2.700   2.226   3.778  0.4271 -0.7047 -0.1386
  326THF     H4 7229   2.494   2.159   3.544 -1.4626 -1.3672  1.4601
  326THF     H5 7230   2.527   2.329   3.593  1.1539 -0.1068 -0.0959
  326THF     H6 7231   2.789   2.172   3.808  0.8536 -0.1135 -0.3170
  326THF     H7 7232   2.709   2.335   3.785 -3.8946 -0.2811  2.3067
  326THF     C8 7233   2.579   2.182   3.854  0.9948 -0.0982  0.5230
  326THF     C9 7234   2.459   2.195   3.754 -0.3591  0.0414  0.1046
  326THF    H10 7235   2.583   2.249   3.939 -1.9041  0.9239 -0.0328
  326THF    H11 7236   2.591   2.076   3.875 -1.9287 -1.1075 -2.0862
  326THF    H12 7237   2.408   2.100   3.744 -0.9736 -0.0954  3.2964
  326THF    H13 7238   2.402   2.283   3.785  0.2466 -0.3829  2.6574
  327THF     O1 7239   1.288   0.198   4.723 -0.4710  0.2056 -0.2789
  327THF     C2 7240   1.253   0.291   4.619 -0.7162  0.4404  0.4527
  327THF     C3 7241   1.300   0.067   4.668 -0.0322 -0.1542  0.0691
  327THF     H4 7242   1.332   0.328   4.554  0.1672  0.8960  1.7218
  327THF     H5 7243   1.213   0.379   4.670 -0.2087  0.8832  0.0942
  327THF     H6 7244   1.390   0.063   4.606  1.4067 -0.3962  2.0656
  327THF     H7 7245   1.307  -0.000   4.753 -1.2572 -0.6301 -0.1859
  327THF     C8 7246   1.183   0.063   4.572  0.7120 -0.7992  0.1377
  327THF     C9 7247   1.161   0.209   4.532  0.3819 -0.1322 -0.1603
  327THF    H10 7248   1.096   0.025   4.626  0.8868 -0.8134  0.4072
  327THF    H11 7249   1.206   0.001   4.485  0.5438 -0.7631  0.0669
  327THF    H12 7250   1.195   0.224   4.430  1.8197  1.0925  0.4651
  327THF    H13 7251   1.055   0.235   4.538  0.0333 -1.5360  0.4136
  328THF     O1 7252   3.311   1.940   4.403  0.1337 -0.2105 -0.1657
  328THF     C2 7253   3.309   2.064   4.481 -0.3843  0.2322 -0.7092
  328THF     C3 7254   3.336   1.978   4.272  0.1933 -0.1227  0.0624
  328THF     H4 7255   3.349   2.044   4.580 -2.4102  0.5198  0.2209
  328THF     H5 7256   3.203   2.091   4.487 -0.0405  1.3846  2.7601
  328THF     H6 7257   3.370   1.893   4.213 -1.4731 -1.4555  0.9220
  328THF     H7 7258   3.241   2.013   4.232  0.0475 -1.9034 -1.2780
  328THF     C8 7259   3.441   2.094   4.273  1.0549  0.0907 -0.0887
  328THF     C9 7260   3.390   2.164   4.402 -0.2891 -0.1340 -0.1098
  328THF    H10 7261   3.442   2.162   4.188  3.3057  1.7928  1.1923
  328THF    H11 7262   3.542   2.054   4.280  0.5721 -0.9549  1.9838
  328THF    H12 7263   3.479   2.189   4.460  0.8017  1.3937 -2.3336
  328THF    H13 7264   3.351   2.261   4.372 -0.6231 -0.6685 -1.4569
  329THF     O1 7265   1.189   3.581   4.510 -0.4467 -0.3054 -0.8436
  329THF     C2 7266   1.331   3.581   4.524 -0.7488 -0.0834 -0.1742
  329THF     C3 7267   1.166   3.494   4.403  0.2482 -0.1660  0.0758
  329THF     H4 7268   1.371   3.627   4.615 -0.2500 -1.4848  0.3304
  329THF     H5 7269   1.383   3.636   4.446  1.0120  1.1498  1.7726
  329THF     H6 7270   1.069   3.445   4.413 -0.2740  0.1346 -2.6422
  329THF     H7 7271   1.161   3.538   4.303  2.4218  0.2837  0.1167
  329THF     C8 7272   1.271   3.379   4.413 -0.6279 -0.1746 -0.4470
  329THF     C9 7273   1.375   3.437   4.507 -0.0224 -0.0240 -0.2328
  329THF    H10 7274   1.305   3.337   4.319 -2.2473 -1.3417 -0.5409
  329THF    H11 7275   1.218   3.296   4.459 -1.6604  0.5729 -0.2377
  329THF    H12 7276   1.352   3.382   4.598  0.9173 -0.5850 -0.3130
  329THF    H13 7277   1.477   3.421   4.472 -0.7558  0.8284 -2.9684
  330THF     O1 7278   1.697   5.316   0.383  0.6274  0.0819 -0.1257
  330THF     C2 7279   1.772   5.313   0.494 -0.0200  0.6380 -0.2192
  330THF     C3 7280   1.715   5.198   0.304 -0.2886 -0.9075  0.7244
  330THF     H4 7281   1.733   5.386   0.565  0.6102  0.6070  0.1616
  330THF     H5 7282   1.864   5.369   0.477  0.2667 -0.2820 -1.8724
  330THF     H6 7283   1.632   5.182   0.235  0.3611  0.1584 -0.3488
  330THF     H7 7284   1.810   5.211   0.252  0.4565  0.8497  2.4144
  330THF     C8 7285   1.728   5.092   0.412 -0.1522  0.1348 -0.4338
  330THF     C9 7286   1.783   5.166   0.542  0.1455 -0.5457  0.0054
  330THF    H10 7287   1.794   5.011   0.379  0.9181  1.0258 -0.5191
  330THF    H11 7288   1.630   5.049   0.436 -0.5928  0.4658 -1.5650
  330THF    H12 7289   1.728   5.129   0.629  0.0741 -0.7548 -0.1263
  330THF    H13 7290   1.890   5.149   0.547  0.0459 -1.9429 -1.5910
  331THF     O1 7291   0.685   0.076   1.908  0.0041  0.4703 -0.5930
  331THF     C2 7292   0.694  -0.065   1.878  0.6474  0.1158  0.2865
  331THF     C3 7293   0.580   0.110   1.992 -0.4608  0.3405  0.3533
  331THF     H4 7294   0.793  -0.110   1.888  0.5253 -0.4156 -0.8225
  331THF     H5 7295   0.658  -0.092   1.779 -0.3498 -0.5061  0.8117
  331THF     H6 7296   0.638   0.139   2.079 -1.9527 -2.4879  2.4718
  331THF     H7 7297   0.519   0.192   1.954  0.1072 -0.0370 -1.4820
  331THF     C8 7298   0.511  -0.020   2.023 -0.3798 -0.1157 -0.0798
  331THF     C9 7299   0.604  -0.129   1.983  0.3957 -0.3583 -0.6011
  331THF    H10 7300   0.433  -0.032   1.948 -0.3056 -1.6624  0.0667
  331THF    H11 7301   0.472  -0.039   2.122 -0.8364 -0.1358 -0.2619
  331THF    H12 7302   0.658  -0.159   2.073  0.9301  3.5593  0.5705
  331THF    H13 7303   0.554  -0.220   1.948  0.0334 -0.7154  0.8001
  332THF     O1 7304   3.794   4.547   2.893  0.2715  0.2308  0.3215
  332THF     C2 7305   3.923   4.526   2.952 -0.1940 -0.2580 -0.1153
  332THF     C3 7306   3.782   4.679   2.859 -0.5518  0.2382  0.7893
  332THF     H4 7307   3.980   4.459   2.888  0.1765  0.3868 -0.4748
  332THF     H5 7308   3.909   4.484   3.051 -0.8213  2.1348  0.8991
  332THF     H6 7309   3.721   4.693   2.770 -0.0166 -0.6297  0.2763
  332THF     H7 7310   3.724   4.714   2.945 -1.4291 -1.1024  0.7752
  332THF     C8 7311   3.922   4.739   2.854  0.5898 -0.1995 -0.6910
  332THF     C9 7312   3.990   4.658   2.964  0.0417 -0.4723  0.1540
  332THF    H10 7313   3.923   4.847   2.862  0.9403 -0.0619 -2.2284
  332THF    H11 7314   3.969   4.716   2.758 -1.2651 -0.2144 -1.6508
  332THF    H12 7315   4.096   4.647   2.939  0.1616 -3.1520  1.4067
  332THF    H13 7316   3.967   4.705   3.060 -0.9039  1.1420 -0.8301
  333THF     O1 7317   1.814   3.833   3.204  0.1358 -0.6523  0.2591
  333THF     C2 7318   1.677   3.838   3.243  0.2096  0.0294  0.4784
  333THF     C3 7319   1.886   3.864   3.328  0.3157 -0.1701  0.3486
  333THF     H4 7320   1.622   3.785   3.165  1.3227  1.7666 -1.5819
  333THF     H5 7321   1.648   3.943   3.242 -1.2952 -0.3665  0.3750
  333THF     H6 7322   1.970   3.794   3.332 -0.2394 -0.8558  0.2542
  333THF     H7 7323   1.917   3.968   3.336  1.9451 -0.7199  1.5716
  333THF     C8 7324   1.793   3.824   3.449 -0.5288 -0.0826 -0.1691
  333THF     C9 7325   1.660   3.777   3.389  0.5822  0.5600  0.5196
  333THF    H10 7326   1.774   3.915   3.505 -0.0413 -1.3204  2.1512
  333THF    H11 7327   1.856   3.756   3.508 -0.3695  0.1984 -0.0139
  333THF    H12 7328   1.667   3.669   3.380  0.5946  0.5529  0.6239
  333THF    H13 7329   1.572   3.801   3.448 -0.0115 -0.3368  0.0176
  334THF     O1 7330   2.821   5.281   3.364  0.0587  0.1666 -0.0917
  334THF     C2 7331   2.700   5.275   3.295 -0.0422  0.0703  0.1357
  334THF     C3 7332   2.832   5.143   3.414 -0.3748 -0.0168 -0.0826
  334THF     H4 7333   2.678   5.365   3.237  1.6667  1.3481  1.4059
  334THF     H5 7334   2.617   5.263   3.365 -1.0315  1.2725 -0.7743
  334THF     H6 7335   2.937   5.141   3.441  0.0993 -0.6110 -1.8684
  334THF     H7 7336   2.769   5.118   3.500 -0.5083 -0.3244 -0.2688
  334THF     C8 7337   2.815   5.063   3.285  0.1920 -0.1108 -0.6379
  334THF     C9 7338   2.742   5.161   3.196 -0.5389  0.7231 -0.1516
  334THF    H10 7339   2.760   4.972   3.310  1.1860 -0.1055  1.9274
  334THF    H11 7340   2.912   5.028   3.249  1.0345 -0.0722  1.4422
  334THF    H12 7341   2.808   5.195   3.116  1.0088  0.8753  1.1271
  334THF    H13 7342   2.652   5.130   3.143 -0.1808  3.1991 -2.4209
  335THF     O1 7343   3.553   2.535   3.315 -0.2114 -0.3722 -0.1314
  335THF     C2 7344   3.589   2.531   3.183 -0.3272 -0.0194 -0.4147
  335THF     C3 7345   3.516   2.399   3.355  0.3549 -0.1959  0.8134
  335THF     H4 7346   3.689   2.572   3.171  0.8751 -3.0317 -1.7490
  335THF     H5 7347   3.521   2.603   3.137  2.1126  1.3002 -2.1380
  335THF     H6 7348   3.608   2.363   3.401  0.9849 -0.5229 -0.6553
  335THF     H7 7349   3.441   2.403   3.435  0.3261  1.8681  0.7340
  335THF     C8 7350   3.486   2.319   3.228 -0.3006 -0.0617  0.3420
  335THF     C9 7351   3.585   2.386   3.125  0.1781 -0.3936  0.1191
  335THF    H10 7352   3.384   2.334   3.191  0.4291 -0.3800 -1.9603
  335THF    H11 7353   3.504   2.211   3.226 -1.1276 -0.2584  1.8184
  335THF    H12 7354   3.689   2.353   3.115 -0.0362 -0.7185 -1.1861
  335THF    H13 7355   3.539   2.385   3.026  1.5471  0.3466 -0.5658
  336THF     O1 7356   0.179   4.312   3.589 -0.3234  0.6804  0.1997
  336THF     C2 7357   0.099   4.292   3.710  0.2962 -0.0399  0.1626
  336THF     C3 7358   0.310   4.267   3.605  0.2032  0.1446  0.4785
  336THF     H4 7359  -0.009   4.291   3.694  0.2303 -1.8265  0.4908
  336THF     H5 7360   0.120   4.377   3.776  0.1408 -0.1229  0.3225
  336THF     H6 7361   0.361   4.249   3.511 -0.6287 -1.3613  0.2869
  336THF     H7 7362   0.370   4.338   3.662 -1.6393  1.1448  1.2657
  336THF     C8 7363   0.292   4.143   3.699 -0.3123  0.2878 -0.1171
  336THF     C9 7364   0.155   4.161   3.760 -0.0513 -0.6959 -0.3321
  336THF    H10 7365   0.364   4.135   3.781 -0.1743  1.0832 -0.1565
  336THF    H11 7366   0.290   4.043   3.657 -2.9512  0.5918 -0.8650
  336THF    H12 7367   0.099   4.073   3.730  1.2890 -1.8935  0.5686
  336THF    H13 7368   0.161   4.164   3.869 -0.1507  1.0480 -0.3440
  337THF     O1 7369   5.280   5.106   5.335 -0.0256 -0.5379  0.2477
  337THF     C2 7370   5.355   5.070   5.448  0.8907  0.7041  0.1128
  337THF     C3 7371   5.266   4.998   5.248  0.6215  0.6038  0.5217
  337THF     H4 7372   5.310   5.116   5.536 -0.8770  1.3454 -1.0795
  337THF     H5 7373   5.457   5.107   5.437  1.3415  0.0524  1.8307
  337THF     H6 7374   5.189   5.020   5.175  2.5072  0.4107 -1.6306
  337THF     H7 7375   5.354   4.988   5.184 -0.3394  0.2721 -0.7895
  337THF     C8 7376   5.250   4.879   5.341  0.1573 -0.6695 -0.4564
  337THF     C9 7377   5.349   4.917   5.451  0.4315  0.2134 -0.2120
  337THF    H10 7378   5.279   4.785   5.294  1.4085  0.6196 -2.3886
  337THF    H11 7379   5.154   4.886   5.392  0.8371  1.3197  0.6417
  337THF    H12 7380   5.327   4.872   5.548 -0.5897 -1.5443 -1.2211
  337THF    H13 7381   5.445   4.882   5.415 -0.4553  0.4893 -3.0582
  338THF     O1 7382   0.978   1.334   5.076 -0.3083  1.1377 -0.0126
  338THF     C2 7383   1.053   1.281   5.180 -0.1147  0.2160 -0.2227
  338THF     C3 7384   0.960   1.239   4.973  0.1444 -0.1212  0.5919
  338THF     H4 7385   1.033   1.319   5.280  0.4032 -0.1374  0.0200
  338THF     H5 7386   1.154   1.316   5.162 -0.2957  0.9822  0.2179
  338THF     H6 7387   0.869   1.282   4.931 -0.3477  1.2657  2.8966
  338THF     H7 7388   1.047   1.243   4.908 -0.2609  0.8098  0.0990
  338THF     C8 7389   0.945   1.111   5.053  0.2734  0.3417 -0.6554
  338THF     C9 7390   1.042   1.134   5.168  0.7199  0.3149 -0.0077
  338THF    H10 7391   0.975   1.024   4.994 -0.6287 -0.9954  0.7947
  338THF    H11 7392   0.848   1.090   5.097  0.1892 -0.1448 -1.0732
  338THF    H12 7393   1.014   1.084   5.261 -3.3821  0.4160 -0.9954
  338THF    H13 7394   1.138   1.097   5.132  0.6280  0.5021 -0.4519
  339THF     O1 7395   1.876   2.560   0.499  0.1922  0.2363 -0.9803
  339THF     C2 7396   1.882   2.576   0.363 -0.3440 -0.7469  0.1566
  339THF     C3 7397   1.883   2.685   0.551  0.2962  0.1392 -0.3917
  339THF     H4 7398   1.791   2.617   0.320 -0.2569 -0.0167  0.6433
  339THF     H5 7399   1.912   2.482   0.316 -0.3811 -1.1264  0.8769
  339THF     H6 7400   1.788   2.738   0.548  0.6400  0.7297 -2.9752
  339THF     H7 7401   1.904   2.662   0.656 -2.0521  0.2913  0.1720
  339THF     C8 7402   1.984   2.756   0.465 -0.0080 -0.2656  0.2902
  339THF     C9 7403   1.996   2.676   0.344 -0.6858  0.1590 -0.4280
  339THF    H10 7404   2.072   2.777   0.526 -0.6448  1.4437  0.6801
  339THF    H11 7405   1.946   2.856   0.443  0.1200 -0.5948 -1.5974
  339THF    H12 7406   2.001   2.722   0.246 -0.4389 -0.7252 -0.8366
  339THF    H13 7407   2.098   2.638   0.348 -1.4837 -2.1361 -0.4134
  340THF     O1 7408   0.310   0.000   1.638  0.2869  0.2944  0.4556
  340THF     C2 7409   0.410  -0.105   1.616  1.0804 -0.1696  0.1572
  340THF     C3 7410   0.216  -0.001   1.537 -0.7430  0.6778 -0.0541
  340THF     H4 7411   0.435  -0.169   1.701  0.8883 -1.8254 -0.9890
  340THF     H5 7412   0.500  -0.054   1.582  0.0291  0.1073 -2.4031
  340THF     H6 7413   0.112  -0.012   1.569 -0.1427 -0.3620  1.6763
  340THF     H7 7414   0.229   0.104   1.509  1.8803  0.3375 -0.3644
  340THF     C8 7415   0.272  -0.094   1.427 -0.0773  0.1599 -0.4577
  340THF     C9 7416   0.360  -0.192   1.495  0.3325 -0.1928  0.2243
  340THF    H10 7417   0.355  -0.037   1.386  0.8532 -0.7668  0.0802
  340THF    H11 7418   0.210  -0.131   1.345  1.6453 -1.0369 -1.2932
  340THF    H12 7419   0.299  -0.273   1.535  0.6323 -0.2381  0.5892
  340THF    H13 7420   0.449  -0.224   1.441  0.8207  0.3664  0.6892
  341THF     O1 7421   3.959   3.671   2.928 -0.3261  0.1162  0.1306
  341THF     C2 7422   3.900   3.744   3.035  0.2613 -0.4396 -0.1436
  341THF     C3 7423   4.100   3.653   2.956  0.5553 -0.0015  0.1226
  341THF     H4 7424   3.800   3.701   3.037  0.4846 -1.0001  2.6206
  341THF     H5 7425   3.890   3.852   3.022 -2.2165 -0.7740 -1.7176
  341THF     H6 7426   4.141   3.578   2.888  0.9656  0.4814 -0.1665
  341THF     H7 7427   4.158   3.745   2.953  3.7020 -1.8347 -0.4271
  341THF     C8 7428   4.084   3.610   3.098 -0.6739  0.1753 -0.0524
  341THF     C9 7429   3.986   3.704   3.159 -0.1696  0.4707 -0.4081
  341THF    H10 7430   4.177   3.626   3.154 -1.4542 -1.8910  2.0086
  341THF    H11 7431   4.058   3.505   3.111  0.7396 -0.2309 -0.3105
  341THF    H12 7432   3.931   3.658   3.241  0.6139  0.5884  0.1865
  341THF    H13 7433   4.021   3.793   3.210  1.0144 -0.6801  0.8746
  342THF     O1 7434   0.049   0.629   0.644 -0.2302  0.1394 -1.0264
  342THF     C2 7435  -0.068   0.656   0.564  0.1983 -0.5803  0.0531
  342THF     C3 7436   0.149   0.703   0.591  0.1824  0.4474 -0.2071
  342THF     H4 7437  -0.111   0.750   0.600  0.3004 -0.3397 -0.4404
  342THF     H5 7438  -0.141   0.579   0.587 -0.7999  0.2627 -0.2269
  342THF     H6 7439   0.134   0.807   0.617  0.7562  0.1686  1.3720
  342THF     H7 7440   0.247   0.671   0.626 -0.0654  0.3508  0.4122
  342THF     C8 7441   0.125   0.683   0.436  0.1991 -0.1058  0.9326
  342THF     C9 7442  -0.018   0.660   0.422 -0.0960  0.4048  0.3451
  342THF    H10 7443   0.181   0.605   0.384 -1.1284 -0.2504 -0.3344
  342THF    H11 7444   0.149   0.780   0.393  0.9260 -0.3479  0.7710
  342THF    H12 7445  -0.063   0.744   0.368  0.9253  0.9827  0.3707
  342THF    H13 7446  -0.040   0.561   0.383  2.8215 -0.1087 -0.1826
  343THF     O1 7447   2.898   2.448   0.322  0.9463 -0.0698 -0.4677
  343THF     C2 7448   2.944   2.469   0.191 -0.7241 -0.0250 -0.0434
  343THF     C3 7449   3.007   2.487   0.408  0.0719  0.8772  0.0991
  343THF     H4 7450   2.916   2.572   0.174 -1.5869 -0.0613  0.9900
  343THF     H5 7451   2.887   2.403   0.126 -2.1885  1.1218  0.0271
  343THF     H6 7452   3.004   2.594   0.432 -4.0726  0.8172  0.5564
  343THF     H7 7453   3.012   2.436   0.504  0.5716  0.6542 -0.0435
  343THF     C8 7454   3.141   2.459   0.331 -0.3168 -0.8106 -0.9885
  343THF     C9 7455   3.091   2.429   0.194  0.7485 -0.3503 -0.1567
  343THF    H10 7456   3.199   2.383   0.384 -1.6675 -0.4626  1.1425
  343THF    H11 7457   3.190   2.556   0.325 -1.6949  0.0841  0.9541
  343THF    H12 7458   3.151   2.467   0.111 -1.2045 -0.2908 -1.6283
  343THF    H13 7459   3.102   2.323   0.174  0.1228 -0.4356 -0.0772
  344THF     O1 7460   4.825   2.251   4.191 -0.1581 -0.2621 -0.6448
  344THF     C2 7461   4.818   2.394   4.205 -0.4992  0.0517  0.7774
  344THF     C3 7462   4.877   2.211   4.320 -0.2266 -0.0052 -0.0784
  344THF     H4 7463   4.756   2.444   4.131 -2.9389 -0.5876  2.2523
  344THF     H5 7464   4.910   2.453   4.209 -0.7396  0.5818 -0.8465
  344THF     H6 7465   4.844   2.108   4.335  0.3963 -0.3060 -0.6651
  344THF     H7 7466   4.986   2.211   4.323 -0.2189 -1.6769  1.2858
  344THF     C8 7467   4.803   2.298   4.423  0.1568 -1.0070  0.5403
  344THF     C9 7468   4.746   2.409   4.334  0.5695  0.6533 -0.2049
  344THF    H10 7469   4.884   2.343   4.481  0.0425  1.3040 -0.9567
  344THF    H11 7470   4.735   2.247   4.492  0.4678 -1.0687  0.8021
  344THF    H12 7471   4.639   2.395   4.322  0.6277  1.2321 -1.6375
  344THF    H13 7472   4.772   2.494   4.398 -1.6626 -0.7120  2.7637
  345THF     O1 7473   1.941   4.095   4.009 -0.3545 -0.6210 -0.7847
  345THF     C2 7474   2.027   4.186   4.079 -0.1330  0.3083 -0.0145
  345THF     C3 7475   2.017   3.979   3.986  0.7581 -0.0102 -0.2773
  345THF     H4 7476   1.968   4.243   4.151 -0.0222 -0.2785  0.5530
  345THF     H5 7477   2.081   4.245   4.005  2.2162 -3.7449 -1.8342
  345THF     H6 7478   1.950   3.906   4.031  1.3554 -1.0620 -1.0216
  345THF     H7 7479   2.014   3.977   3.877 -1.9681  1.9930 -0.3304
  345THF     C8 7480   2.150   3.995   4.066  0.7023  0.2886 -0.4807
  345THF     C9 7481   2.117   4.098   4.168  0.7075  0.0704 -0.0463
  345THF    H10 7482   2.236   4.024   4.006  2.3422  1.5921  2.3296
  345THF    H11 7483   2.178   3.898   4.108  0.4676 -0.4832 -2.0117
  345THF    H12 7484   2.074   4.036   4.247 -1.7357 -2.2976 -2.9747
  345THF    H13 7485   2.209   4.151   4.194 -0.0425  0.9846  0.8192
  346THF     O1 7486   3.372   5.137   2.952  0.0532 -0.3249 -0.4039
  346THF     C2 7487   3.355   5.199   3.078  0.1884  0.6056  0.3074
  346THF     C3 7488   3.265   5.046   2.944  0.9495 -0.4740 -0.0293
  346THF     H4 7489   3.404   5.296   3.076 -0.0460  0.7757  1.7709
  346THF     H5 7490   3.410   5.137   3.149  1.4120 -1.8338 -2.5475
  346THF     H6 7491   3.239   5.004   2.847  0.0219 -0.2043  0.0960
  346THF     H7 7492   3.288   4.958   3.005  0.1061 -1.5604 -1.2096
  346THF     C8 7493   3.148   5.129   2.988  0.7681 -0.3392 -0.2681
  346THF     C9 7494   3.206   5.199   3.107  0.0881 -0.0308  0.0811
  346THF    H10 7495   3.060   5.071   3.016  0.0206  1.2147  0.7387
  346THF    H11 7496   3.115   5.199   2.911 -0.4531 -0.7022 -0.1010
  346THF    H12 7497   3.167   5.300   3.115  0.3641  0.2659 -1.8659
  346THF    H13 7498   3.167   5.143   3.192 -2.1036  1.6093  0.2558
  347THF     O1 7499   3.859   3.299   2.707 -0.3811  0.3839 -0.5852
  347THF     C2 7500   3.853   3.379   2.823  0.2999  0.3739 -0.4767
  347THF     C3 7501   3.942   3.186   2.727  0.4066  0.8639  0.0616
  347THF     H4 7502   3.764   3.442   2.824  0.0425  0.0107  0.1570
  347THF     H5 7503   3.939   3.446   2.824  2.9898 -2.7560  2.2843
  347THF     H6 7504   3.902   3.105   2.666 -0.1607  2.2837 -1.5136
  347THF     H7 7505   4.049   3.197   2.709  0.3188  0.6368 -0.6337
  347THF     C8 7506   3.941   3.159   2.876 -0.3880 -0.3555  0.3281
  347THF     C9 7507   3.853   3.266   2.932  0.0348  0.4286 -0.0371
  347THF    H10 7508   4.043   3.181   2.907 -0.5019 -0.5131  0.8242
  347THF    H11 7509   3.925   3.053   2.896 -0.3462 -0.8770 -2.0761
  347THF    H12 7510   3.754   3.222   2.946 -0.5493  2.2522  2.1920
  347THF    H13 7511   3.894   3.300   3.027 -0.5295 -1.5753  0.9945
  348THF     O1 7512   3.892   2.642   3.930 -0.1036 -0.5879 -0.4176
  348THF     C2 7513   3.917   2.742   3.829 -0.5933 -0.0005  1.0891
  348THF     C3 7514   3.916   2.712   4.060  0.5138 -0.1091 -0.1734
  348THF     H4 7515   3.857   2.713   3.743  0.6144  1.8781 -0.4723
  348THF     H5 7516   4.020   2.736   3.796 -1.5341 -2.4926 -1.8105
  348THF     H6 7517   3.874   2.652   4.142 -0.3838  1.1903  0.3524
  348THF     H7 7518   4.025   2.713   4.070  0.7864 -2.5618 -1.9936
  348THF     C8 7519   3.842   2.836   4.031 -1.2181  0.4103  0.2801
  348THF     C9 7520   3.872   2.872   3.890  0.3706 -0.4978  1.1197
  348THF    H10 7521   3.880   2.914   4.096  0.7788  0.6844 -1.1163
  348THF    H11 7522   3.737   2.823   4.059 -1.7934  2.8681 -0.5170
  348THF    H12 7523   3.775   2.897   3.848 -0.2310 -1.9989  1.5418
  348THF    H13 7524   3.938   2.955   3.868 -0.5585  0.3745  1.5678
  349THF     O1 7525   0.118   0.553   2.652  0.0613  0.0716  0.6380
  349THF     C2 7526   0.128   0.455   2.555  0.2317 -0.7555 -0.4653
  349THF     C3 7527   0.230   0.640   2.637 -0.4090 -0.0612  0.1565
  349THF     H4 7528   0.111   0.503   2.458  0.2727 -1.4813 -0.8380
  349THF     H5 7529   0.061   0.370   2.563 -0.1478 -0.4897 -0.7994
  349THF     H6 7530   0.225   0.703   2.548  0.1113  0.4064  0.4494
  349THF     H7 7531   0.250   0.702   2.724  0.5379 -1.5523  1.0468
  349THF     C8 7532   0.340   0.528   2.628  0.0999  0.4662  0.5104
  349THF     C9 7533   0.268   0.412   2.567 -0.4747 -0.0724  1.0255
  349THF    H10 7534   0.369   0.499   2.729  0.5094 -0.4575  0.1382
  349THF    H11 7535   0.435   0.542   2.576  1.1462 -0.0823  2.1757
  349THF    H12 7536   0.300   0.394   2.465 -0.5571  2.9755  0.3694
  349THF    H13 7537   0.272   0.320   2.626  1.1559  0.0137  1.0919
  350THF     O1 7538   4.226   1.963   1.313  0.0445 -0.8418  0.2968
  350THF     C2 7539   4.335   1.939   1.225  0.3493  0.1977  0.0445
  350THF     C3 7540   4.153   1.839   1.312  0.6071  0.1391  0.6285
  350THF     H4 7541   4.406   2.021   1.235  0.8305  0.0227 -1.6466
  350THF     H5 7542   4.297   1.937   1.123  0.2253  2.8729 -0.0394
  350THF     H6 7543   4.080   1.825   1.392 -1.6817 -2.3425 -1.7031
  350THF     H7 7544   4.095   1.845   1.220  1.2268 -0.1320  0.2136
  350THF     C8 7545   4.265   1.728   1.315  0.5043 -0.6150 -0.0638
  350THF     C9 7546   4.389   1.804   1.281 -0.2745 -0.3912  0.1604
  350THF    H10 7547   4.248   1.643   1.248  1.6686 -0.2885 -0.7922
  350THF    H11 7548   4.262   1.686   1.415 -1.6391  1.4057  0.8135
  350THF    H12 7549   4.445   1.815   1.374  1.3924 -0.9919 -0.7415
  350THF    H13 7550   4.441   1.743   1.207  0.0301  0.7505 -0.5915
  351THF     O1 7551   4.162   0.731   2.985 -0.1870 -0.0594 -0.2178
  351THF     C2 7552   4.172   0.832   3.089  0.1836 -0.5129 -0.2766
  351THF     C3 7553   4.247   0.770   2.882 -0.4733  0.3597 -0.4020
  351THF     H4 7554   4.245   0.796   3.160  0.8872 -0.8887 -1.1767
  351THF     H5 7555   4.071   0.842   3.131  0.3534  1.5581 -0.2464
  351THF     H6 7556   4.351   0.752   2.909 -0.8087  0.5949  1.1297
  351THF     H7 7557   4.225   0.705   2.797 -2.0105 -1.2385  1.1418
  351THF     C8 7558   4.220   0.914   2.871  0.0374 -0.6903 -0.0858
  351THF     C9 7559   4.217   0.959   3.017  0.5864 -0.4248  0.7470
  351THF    H10 7560   4.122   0.927   2.825  1.0001 -1.4305 -2.5034
  351THF    H11 7561   4.288   0.971   2.808 -1.5750 -0.9135 -2.1521
  351THF    H12 7562   4.309   0.989   3.067  0.1099 -0.3947  1.6331
  351THF    H13 7563   4.148   1.042   3.029 -1.9870 -2.6056  2.1715
  352THF     O1 7564   3.169   3.739   0.648  0.0853  0.4516 -0.0164
  352THF     C2 7565   3.079   3.668   0.717  0.1335  0.0103 -0.4750
  352THF     C3 7566   3.107   3.765   0.519 -0.1251 -0.3623 -0.4742
  352THF     H4 7567   3.036   3.731   0.795 -1.6168  0.5597 -1.8011
  352THF     H5 7568   3.118   3.577   0.764 -0.8930 -0.1535  0.0979
  352THF     H6 7569   3.129   3.870   0.498  0.2118  0.2428  2.4980
  352THF     H7 7570   3.157   3.698   0.449  1.7340 -0.6646  1.0667
  352THF     C8 7571   2.959   3.745   0.539  0.1834 -0.2086 -0.7581
  352THF     C9 7572   2.977   3.621   0.628  0.2987 -0.5661 -0.3826
  352THF    H10 7573   2.900   3.728   0.449 -1.5228  1.9604 -0.1261
  352THF    H11 7574   2.927   3.830   0.599 -1.3565 -0.8692 -0.5941
  352THF    H12 7575   2.888   3.588   0.682  0.2891 -0.5183 -0.3687
  352THF    H13 7576   3.016   3.538   0.569 -0.7619 -0.6996 -0.9183
  353THF     O1 7577   2.132   4.562   1.315 -0.7435 -0.0863  0.0639
  353THF     C2 7578   2.155   4.446   1.387  0.7974  0.5801 -0.1285
  353THF     C3 7579   2.035   4.543   1.209 -0.7473  0.0919 -0.7839
  353THF     H4 7580   2.063   4.437   1.446  0.8597  0.5168 -0.0422
  353THF     H5 7581   2.239   4.428   1.454 -0.5601 -0.0263  1.4842
  353THF     H6 7582   1.933   4.561   1.245 -0.7673 -1.0162 -0.2657
  353THF     H7 7583   2.056   4.620   1.134  0.0054 -0.2577 -0.9338
  353THF     C8 7584   2.062   4.400   1.162 -0.4377  0.3508 -0.2922
  353THF     C9 7585   2.153   4.338   1.275  0.2417 -0.4135  0.1280
  353THF    H10 7586   2.116   4.386   1.068  0.1086 -0.2554  0.1046
  353THF    H11 7587   1.969   4.343   1.153  0.6392 -1.1516 -3.7995
  353THF    H12 7588   2.134   4.237   1.310  1.5113 -0.8087 -0.2621
  353THF    H13 7589   2.257   4.330   1.245  0.2074  0.6341 -0.3220
  354THF     O1 7590   0.730   4.117   4.472  0.2980  0.0307  0.0751
  354THF     C2 7591   0.629   4.010   4.502 -0.4722 -0.2229 -0.0132
  354THF     C3 7592   0.646   4.229   4.452 -0.3362 -0.1790  0.6921
  354THF     H4 7593   0.677   3.929   4.557  2.1557  0.7660 -0.6845
  354THF     H5 7594   0.595   3.965   4.409  0.3293  0.1349 -0.4900
  354THF     H6 7595   0.691   4.326   4.471  0.4694  0.0437 -2.0378
  354THF     H7 7596   0.613   4.233   4.349  1.6795  2.4865  0.0356
  354THF     C8 7597   0.515   4.221   4.527 -0.5556 -0.5840  0.0749
  354THF     C9 7598   0.509   4.078   4.575 -0.5189  0.4609  0.6902
  354THF    H10 7599   0.434   4.260   4.467  0.0816  0.8079  0.0828
  354THF    H11 7600   0.528   4.286   4.614  1.8409  0.4410 -0.9366
  354THF    H12 7601   0.531   4.063   4.681  3.7387 -0.4408 -0.1418
  354THF    H13 7602   0.416   4.023   4.557 -0.8091  1.4379 -0.9625
  355THF     O1 7603   3.888   3.513   1.429 -0.0995  0.5217  0.0144
  355THF     C2 7604   3.781   3.604   1.451  0.3840  0.5379 -0.3850
  355THF     C3 7605   3.886   3.417   1.528  0.5215 -0.4145 -0.0890
  355THF     H4 7606   3.762   3.662   1.361  2.4507  1.0181 -0.5584
  355THF     H5 7607   3.812   3.671   1.531 -2.0530 -1.7079  2.6843
  355THF     H6 7608   3.966   3.349   1.497 -0.9996 -1.2011 -2.5302
  355THF     H7 7609   3.907   3.452   1.629  0.7083 -3.9143  1.2245
  355THF     C8 7610   3.736   3.373   1.514  0.8549  0.1827 -0.0178
  355THF     C9 7611   3.665   3.511   1.491 -0.6884  0.2873 -0.2426
  355THF    H10 7612   3.700   3.310   1.595 -0.9157  0.7010 -0.3494
  355THF    H11 7613   3.733   3.319   1.419 -1.0324  0.8527 -0.4051
  355THF    H12 7614   3.581   3.501   1.422 -0.0327 -1.2329 -0.8746
  355THF    H13 7615   3.618   3.544   1.583 -1.0949 -1.6710  0.3001
  356THF     O1 7616   0.170   4.326   1.844  0.8599  0.2671  0.2381
  356THF     C2 7617   0.208   4.253   1.960 -0.0256 -0.1977 -0.3890
  356THF     C3 7618   0.118   4.453   1.900  0.0420  0.0918 -0.4376
  356THF     H4 7619   0.293   4.308   1.998 -0.7606 -0.0035  1.0261
  356THF     H5 7620   0.247   4.152   1.947  0.5944  0.0611 -0.5994
  356THF     H6 7621   0.197   4.508   1.950  0.3288 -0.0502 -0.7287
  356THF     H7 7622   0.067   4.514   1.825  2.2566  0.1506 -1.9927
  356THF     C8 7623   0.026   4.404   2.007 -0.1318 -0.0124 -0.1920
  356THF     C9 7624   0.082   4.274   2.049 -1.0102  0.6104  0.0677
  356THF    H10 7625  -0.070   4.395   1.957 -0.1966  0.3871 -0.1461
  356THF    H11 7626   0.002   4.481   2.081  0.4947 -0.0483  0.0569
  356THF    H12 7627   0.109   4.245   2.151  0.4211 -0.6795 -0.6425
  356THF    H13 7628   0.008   4.199   2.023  2.4488 -3.2287  0.2106
  357THF     O1 7629   3.363   0.946   0.475  0.0110  0.3835  0.1485
  357THF     C2 7630   3.446   1.050   0.529  0.2374  0.1104 -0.3867
  357THF     C3 7631   3.240   0.954   0.542 -0.4951 -0.4552 -0.3635
  357THF     H4 7632   3.409   1.140   0.480 -0.6511  0.1372  0.3208
  357THF     H5 7633   3.547   1.033   0.493 -0.6962  0.0938 -3.2972
  357THF     H6 7634   3.191   1.042   0.502  1.4811  0.4316 -0.9533
  357THF     H7 7635   3.172   0.869   0.530 -1.8006  0.5249 -0.1676
  357THF     C8 7636   3.285   0.980   0.694 -0.1792 -0.0568  0.1498
  357THF     C9 7637   3.424   1.036   0.683 -1.0689  0.3811  1.0663
  357THF    H10 7638   3.275   0.890   0.754 -0.1590 -0.5201 -0.5256
  357THF    H11 7639   3.216   1.049   0.741  1.1837  0.1750  1.9068
  357THF    H12 7640   3.423   1.131   0.736  2.7613  0.3954  1.3766
  357THF    H13 7641   3.503   0.971   0.721  1.3271  1.6774 -1.3853
  358THF     O1 7642   1.866   3.412   2.033 -0.0385  0.6530 -0.6097
  358THF     C2 7643   1.943   3.312   1.959 -0.0475  0.1561  0.6422
  358THF     C3 7644   1.945   3.463   2.141  0.2693 -0.4599  0.5981
  358THF     H4 7645   1.975   3.359   1.866  1.0167 -1.4839  0.1220
  358THF     H5 7646   1.896   3.217   1.936  0.0604  0.1870  0.2851
  358THF     H6 7647   1.942   3.571   2.155 -1.7131 -0.4359  0.2442
  358THF     H7 7648   1.917   3.424   2.239 -1.4779  1.5572  0.9577
  358THF     C8 7649   2.076   3.419   2.109 -0.4153  0.1057 -0.1567
  358THF     C9 7650   2.067   3.284   2.043 -0.3793  0.2940  0.0306
  358THF    H10 7651   2.147   3.423   2.192 -1.8017  2.9386  1.0167
  358THF    H11 7652   2.109   3.491   2.033  0.8362 -0.1239  0.1412
  358THF    H12 7653   2.154   3.258   1.983  0.0539 -0.2197  0.8535
  358THF    H13 7654   2.051   3.196   2.105 -1.2777 -2.0211 -3.2184
  359THF     O1 7655   2.799   3.033   1.917  0.3859  0.3451  0.4518
  359THF     C2 7656   2.852   2.923   1.987  0.0579  0.3963 -0.4895
  359THF     C3 7657   2.873   3.149   1.949 -0.6675  0.1035  0.5028
  359THF     H4 7658   2.948   2.899   1.941 -0.4416 -0.9953 -0.8623
  359THF     H5 7659   2.788   2.835   1.984  0.2133  0.2237  0.8736
  359THF     H6 7660   2.942   3.161   1.865 -0.3537  1.0066  0.8756
  359THF     H7 7661   2.814   3.240   1.939 -0.1933  0.4024  0.3772
  359THF     C8 7662   2.913   3.123   2.095  0.0583 -0.2549  0.4889
  359THF     C9 7663   2.873   2.977   2.130 -0.1907  0.2987  0.0995
  359THF    H10 7664   2.855   3.190   2.159  1.3375 -0.2763  1.7113
  359THF    H11 7665   3.018   3.150   2.105 -0.6315  2.4485  1.0912
  359THF    H12 7666   2.956   2.921   2.173  0.7037  1.2881 -0.2907
  359THF    H13 7667   2.794   2.984   2.204  0.9308 -1.3359  1.5470
  360THF     O1 7668   3.854   2.922   0.721 -0.2498  1.2645  0.0099
  360THF     C2 7669   3.961   3.010   0.740 -0.8836 -0.0798  0.7422
  360THF     C3 7670   3.834   2.905   0.582 -0.5025 -0.1942 -0.2349
  360THF     H4 7671   4.059   2.963   0.730 -0.1268  1.4314  0.7740
  360THF     H5 7672   3.958   3.044   0.844  0.9426  2.0282  0.1740
  360THF     H6 7673   3.894   2.820   0.549  0.9864  0.4134  0.7891
  360THF     H7 7674   3.731   2.875   0.567 -0.4171  0.4234 -2.4172
  360THF     C8 7675   3.890   3.033   0.512  0.1512 -0.4841 -0.1181
  360THF     C9 7676   3.941   3.113   0.628  0.7061  0.0176  0.2221
  360THF    H10 7677   3.814   3.085   0.453 -1.3572 -1.6118  0.7505
  360THF    H11 7678   3.969   3.002   0.444  1.5614 -0.3088  1.3859
  360THF    H12 7679   4.025   3.181   0.612  1.1424 -0.7928 -1.0819
  360THF    H13 7680   3.855   3.177   0.646  1.3687  1.4584 -1.3801
  361THF     O1 7681   0.486   4.340   3.084  0.0459 -0.1826  0.8494
  361THF     C2 7682   0.405   4.453   3.052 -0.4352 -0.5007  0.1325
  361THF     C3 7683   0.622   4.380   3.077  0.7101 -0.7121 -0.0352
  361THF     H4 7684   0.369   4.504   3.141 -0.3725  0.2331 -0.2572
  361THF     H5 7685   0.312   4.430   2.999 -0.0113 -2.9686  0.3598
  361THF     H6 7686   0.650   4.434   3.167 -0.3555 -2.4505  1.3985
  361THF     H7 7687   0.682   4.292   3.053  0.1131 -0.1655 -4.4796
  361THF     C8 7688   0.621   4.469   2.951 -0.0534 -0.8974  0.2656
  361THF     C9 7689   0.489   4.546   2.956  0.2866 -0.8906  0.4285
  361THF    H10 7690   0.610   4.416   2.857 -0.0608  1.6401 -1.2471
  361THF    H11 7691   0.700   4.543   2.941 -0.7856 -0.0081  0.9423
  361THF    H12 7692   0.496   4.645   3.003 -0.3891 -0.7866  0.3259
  361THF    H13 7693   0.429   4.553   2.865 -0.6991  0.8395  1.1570
  362THF     O1 7694   2.729   2.534   4.435  0.0148  0.4497 -0.2352
  362THF     C2 7695   2.788   2.660   4.395 -0.9069  0.1806  0.3455
  362THF     C3 7696   2.588   2.558   4.451 -0.5702  0.3474 -0.2832
  362THF     H4 7697   2.837   2.652   4.298  1.5615  0.0494  1.5261
  362THF     H5 7698   2.870   2.681   4.464  0.4043 -2.3446 -0.3017
  362THF     H6 7699   2.532   2.544   4.358 -1.1874 -0.8809  0.2521
  362THF     H7 7700   2.546   2.492   4.527 -0.4596 -1.6259 -1.8367
  362THF     C8 7701   2.576   2.700   4.493 -0.3221 -0.3843 -0.5158
  362THF     C9 7702   2.682   2.764   4.409 -0.4064 -0.4147  0.2985
  362THF    H10 7703   2.609   2.717   4.596  1.3826 -2.0530 -0.7425
  362THF    H11 7704   2.474   2.736   4.477 -0.6881 -1.6780 -1.2477
  362THF    H12 7705   2.656   2.780   4.304 -0.2297  0.6811  0.4036
  362THF    H13 7706   2.725   2.859   4.443  1.0439 -0.6374 -0.8037
  363THF     O1 7707   3.581   0.912   3.064  0.4334  0.0137 -0.1040
  363THF     C2 7708   3.714   0.969   3.057  0.2846 -0.0223  0.0986
  363THF     C3 7709   3.515   0.946   2.947  0.2284  0.4496 -0.1180
  363THF     H4 7710   3.770   0.895   3.000 -1.6335 -1.2011 -0.3414
  363THF     H5 7711   3.757   0.974   3.158  4.4927  0.4287 -1.4872
  363THF     H6 7712   3.556   0.898   2.858  1.4768  0.1904  0.5680
  363THF     H7 7713   3.408   0.933   2.958  0.1334  0.0515 -1.3139
  363THF     C8 7714   3.550   1.094   2.935  0.0671  0.5069  0.4246
  363THF     C9 7715   3.694   1.100   2.990  0.2918 -0.3943 -0.7930
  363THF    H10 7716   3.493   1.153   3.007  2.1329  0.5173  2.1748
  363THF    H11 7717   3.538   1.143   2.838  2.4201  0.3967  0.0164
  363THF    H12 7718   3.770   1.114   2.913 -0.2303 -0.8096 -1.3969
  363THF    H13 7719   3.712   1.178   3.065 -0.6735 -1.0945  0.1937
  364THF     O1 7720   0.413   3.662   2.408 -0.0738 -0.2578  0.0200
  364THF     C2 7721   0.532   3.731   2.425 -0.9861  0.3756  0.2237
  364THF     C3 7722   0.384   3.604   2.537 -0.6584 -0.2412  0.2269
  364THF     H4 7723   0.521   3.825   2.478  0.3959  0.1677  0.9270
  364THF     H5 7724   0.569   3.753   2.324 -2.4869 -2.3140 -1.0301
  364THF     H6 7725   0.352   3.681   2.607 -1.9366 -0.1142 -0.4738
  364THF     H7 7726   0.303   3.532   2.524 -1.2604  0.6431 -1.3418
  364THF     C8 7727   0.520   3.558   2.578  0.1121  0.1593  0.2886
  364THF     C9 7728   0.615   3.639   2.499  0.0562  0.2218 -0.5389
  364THF    H10 7729   0.531   3.453   2.551 -0.0263  0.2837 -0.2544
  364THF    H11 7730   0.537   3.569   2.685 -0.9633 -0.3040  0.5216
  364THF    H12 7731   0.686   3.684   2.568 -1.3838  1.3085  0.3184
  364THF    H13 7732   0.668   3.571   2.433 -0.2712  0.8907 -1.4956
  365THF     O1 7733   1.716   4.411   1.550 -0.7352  0.0156 -0.1386
  365THF     C2 7734   1.734   4.536   1.492  0.2327  0.3094 -0.7740
  365THF     C3 7735   1.695   4.324   1.445  0.2037  0.7242  0.1406
  365THF     H4 7736   1.837   4.550   1.457  1.3595 -1.4751  1.5323
  365THF     H5 7737   1.722   4.618   1.563  0.8837 -0.0237 -0.2725
  365THF     H6 7738   1.779   4.257   1.428 -0.0364  0.8038 -1.5839
  365THF     H7 7739   1.606   4.268   1.474 -1.0917  1.7007 -1.7355
  365THF     C8 7740   1.666   4.409   1.320  0.6258  0.2792  0.4740
  365THF     C9 7741   1.637   4.545   1.376  0.1881  0.7089  0.5812
  365THF    H10 7742   1.572   4.371   1.280  0.9187  1.1212 -1.0723
  365THF    H11 7743   1.742   4.406   1.243  0.2560 -1.5024  0.1531
  365THF    H12 7744   1.664   4.624   1.306  0.5813  0.6707  0.6891
  365THF    H13 7745   1.530   4.550   1.399 -0.3923  0.3876 -1.7822
  366THF     O1 7746   4.294   0.389   0.596  0.3679  0.1729  0.0439
  366THF     C2 7747   4.266   0.250   0.582 -0.1059  0.0213 -0.3325
  366THF     C3 7748   4.419   0.420   0.535 -0.2881 -0.0922 -0.3040
  366THF     H4 7749   4.173   0.233   0.527 -1.0424 -2.0134  1.7355
  366THF     H5 7750   4.251   0.202   0.678 -2.1095  0.7860 -0.2028
  366THF     H6 7751   4.394   0.482   0.449  1.6949  1.9915  0.5010
  366THF     H7 7752   4.472   0.486   0.604 -1.2498  2.7614 -2.0990
  366THF     C8 7753   4.492   0.283   0.515  0.6647  0.5212  0.0699
  366THF     C9 7754   4.374   0.183   0.500 -1.0239  0.1192  0.5140
  366THF    H10 7755   4.550   0.264   0.606 -0.9768  0.6174  1.1881
  366THF    H11 7756   4.547   0.279   0.422  0.5203 -1.2545  0.0352
  366THF    H12 7757   4.339   0.174   0.397 -0.2562 -0.7131  0.3151
  366THF    H13 7758   4.389   0.079   0.529 -0.1430  0.5075  1.5121
  367THF     O1 7759   0.830   2.730   5.462 -0.6904  0.0921  0.0861
  367THF     C2 7760   0.906   2.766   5.344  0.7469 -0.1526 -0.8036
  367THF     C3 7761   0.746   2.626   5.428  0.6186  0.3823  1.0877
  367THF     H4 7762   0.999   2.813   5.374 -1.3808  2.9182  1.6522
  367THF     H5 7763   0.857   2.838   5.278 -0.8848 -0.3861  0.0905
  367THF     H6 7764   0.701   2.567   5.508 -1.1358 -0.3185 -0.3542
  367THF     H7 7765   0.662   2.659   5.366  1.2510  0.0795  0.0361
  367THF     C8 7766   0.843   2.535   5.351  0.5005  0.3542 -0.0644
  367THF     C9 7767   0.924   2.633   5.269  0.0015 -0.3612 -0.1647
  367THF    H10 7768   0.778   2.471   5.292 -2.0620  2.0246  0.8177
  367THF    H11 7769   0.896   2.476   5.426 -1.1000 -0.1351  0.7221
  367THF    H12 7770   1.029   2.605   5.261 -0.1911 -1.3619  0.5692
  367THF    H13 7771   0.886   2.638   5.167  0.9554 -0.1013 -0.5231
  368THF     O1 7772   0.829   4.769   3.284 -0.6537 -0.1199  0.6041
  368THF     C2 7773   0.889   4.675   3.199 -0.3538 -0.1220 -0.1412
  368THF     C3 7774   0.871   4.733   3.414  0.0726  0.2907 -0.4291
  368THF     H4 7775   0.883   4.712   3.097  1.9389  2.5055  0.5460
  368THF     H5 7776   0.845   4.576   3.203  2.3937 -1.4190  0.4671
  368THF     H6 7777   0.871   4.817   3.483  0.6682 -0.0691  0.0133
  368THF     H7 7778   0.813   4.653   3.460  1.5660 -1.3511 -1.2939
  368THF     C8 7779   1.008   4.678   3.402  0.0422 -0.1563 -0.1662
  368THF     C9 7780   1.033   4.681   3.257  0.2841  0.2083  0.3435
  368THF    H10 7781   1.018   4.574   3.433  1.1771 -0.0869 -0.2545
  368THF    H11 7782   1.079   4.726   3.469 -0.3613  1.3929 -0.8008
  368THF    H12 7783   1.103   4.762   3.236  0.5850  0.1595  1.1264
  368THF    H13 7784   1.092   4.596   3.224  2.3406  1.5330  0.3979
  369THF     O1 7785   2.301   5.200   1.037  0.0299  0.2184  0.3154
  369THF     C2 7786   2.281   5.182   0.898  0.7411 -0.2672  0.1308
  369THF     C3 7787   2.432   5.245   1.051 -0.3717 -0.7808  0.3606
  369THF     H4 7788   2.177   5.162   0.874  0.5274 -0.4862  1.2129
  369THF     H5 7789   2.342   5.099   0.861 -2.4602 -2.4397 -0.6896
  369THF     H6 7790   2.435   5.313   1.136  0.3191  0.1641 -0.3957
  369THF     H7 7791   2.498   5.161   1.068  0.5907 -0.3566 -1.0363
  369THF     C8 7792   2.461   5.324   0.916  0.1150 -0.3203  0.0440
  369THF     C9 7793   2.332   5.311   0.839  0.0051  0.4606  0.1410
  369THF    H10 7794   2.539   5.269   0.862  1.8542  0.4879  1.6565
  369THF    H11 7795   2.499   5.425   0.926  1.2111 -0.7919  0.8605
  369THF    H12 7796   2.263   5.392   0.862  0.1339 -0.1570  3.0414
  369THF    H13 7797   2.349   5.306   0.731 -0.4201  0.5136  0.0677
  370THF     O1 7798   5.076   0.707   1.369 -0.1457 -0.0772  0.0369
  370THF     C2 7799   4.965   0.624   1.352  0.0227 -0.1335 -0.5494
  370THF     C3 7800   5.072   0.796   1.485  0.1235  0.0380  0.1283
  370THF     H4 7801   4.977   0.527   1.399 -1.7155 -0.7045 -1.2108
  370THF     H5 7802   4.943   0.618   1.245  1.5991  0.3319 -0.9351
  370THF     H6 7803   5.154   0.785   1.556 -0.8842 -0.3024  1.2596
  370THF     H7 7804   5.085   0.898   1.448 -2.7362  1.3025  2.2940
  370THF     C8 7805   4.931   0.778   1.539  0.1713 -0.1525  0.2815
  370THF     C9 7806   4.858   0.698   1.429 -0.0647  0.3437 -0.1422
  370THF    H10 7807   4.873   0.870   1.541 -0.0208 -0.2426 -0.6704
  370THF    H11 7808   4.929   0.740   1.641  0.7578 -1.3481 -0.1320
  370THF    H12 7809   4.782   0.632   1.470  1.0590  0.4616  2.2902
  370THF    H13 7810   4.809   0.765   1.358 -1.8218 -1.6933 -0.9563
  371THF     O1 7811   4.800   3.634   1.774  0.3093  0.1310 -0.1914
  371THF     C2 7812   4.718   3.621   1.655  0.2243  0.2625  0.3834
  371THF     C3 7813   4.935   3.616   1.748 -0.0237 -0.1342  0.5890
  371THF     H4 7814   4.702   3.719   1.611 -0.8693  0.1227  0.4433
  371THF     H5 7815   4.624   3.576   1.687  0.3504 -2.0077 -2.0777
  371THF     H6 7816   5.001   3.698   1.776 -0.5509  0.0998  1.1629
  371THF     H7 7817   4.972   3.533   1.809  0.0204  0.9515  2.0898
  371THF     C8 7818   4.947   3.567   1.604 -0.3917  0.5058  0.3506
  371THF     C9 7819   4.808   3.524   1.571 -0.0189  0.2438  0.3711
  371THF    H10 7820   5.015   3.482   1.607 -1.3994 -0.2809  1.2654
  371THF    H11 7821   4.973   3.638   1.525 -2.2555  1.6382  0.6872
  371THF    H12 7822   4.785   3.521   1.464  0.3229 -1.1741  0.3098
  371THF    H13 7823   4.785   3.424   1.609  0.3929  0.4053  1.0534
  372THF     O1 7824   0.669   1.318   5.379 -0.2258  0.1366 -0.5017
  372THF     C2 7825   0.578   1.399   5.443  0.2489  0.2006 -0.3706
  372THF     C3 7826   0.686   1.374   5.247 -0.5836  0.9730 -0.2871
  372THF     H4 7827   0.621   1.488   5.488  0.9034 -0.1327 -0.3374
  372THF     H5 7828   0.530   1.342   5.523  3.4966  0.4240  1.9101
  372THF     H6 7829   0.789   1.410   5.241  0.7679 -2.6917 -1.4010
  372THF     H7 7830   0.672   1.295   5.173  0.6963  0.7709 -0.3382
  372THF     C8 7831   0.575   1.474   5.225 -1.0194 -0.1533 -0.5488
  372THF     C9 7832   0.483   1.436   5.334 -0.4982 -0.1240 -0.1813
  372THF    H10 7833   0.533   1.466   5.125  1.6339 -0.5405 -1.7374
  372THF    H11 7834   0.614   1.575   5.234 -0.7342  0.1192 -3.6262
  372THF    H12 7835   0.438   1.525   5.377  0.7555  0.8967 -0.9331
  372THF    H13 7836   0.403   1.366   5.310 -1.9542  1.8079 -1.2644
  373THF     O1 7837   1.663   0.943   4.521 -0.4406  0.6377 -0.3560
  373THF     C2 7838   1.676   1.041   4.412  0.6245 -0.0956 -0.3289
  373THF     C3 7839   1.717   1.000   4.641 -0.3891  0.1932 -0.0309
  373THF     H4 7840   1.632   1.139   4.435  1.1241 -0.5492  3.1060
  373THF     H5 7841   1.650   1.007   4.312 -1.2749 -0.3061  0.1890
  373THF     H6 7842   1.644   1.059   4.696  1.5577  0.4063  2.5222
  373THF     H7 7843   1.751   0.927   4.715 -2.4190 -1.1456 -0.3493
  373THF     C8 7844   1.838   1.072   4.585 -0.3645  0.3357  0.0013
  373THF     C9 7845   1.819   1.079   4.432  0.0503 -0.2126 -0.6825
  373THF    H10 7846   1.920   1.002   4.600 -1.7108 -1.7263 -1.7821
  373THF    H11 7847   1.843   1.172   4.630  2.3258  1.0301 -1.6222
  373THF    H12 7848   1.865   1.164   4.382  2.1410 -3.5859 -5.3192
  373THF    H13 7849   1.878   1.003   4.381 -1.3740 -1.8004 -0.0701
  374THF     O1 7850   4.509   0.480   2.912  0.1804 -0.2220 -0.0054
  374THF     C2 7851   4.590   0.365   2.937  0.1439  0.2741  0.8057
  374THF     C3 7852   4.493   0.508   2.771 -0.3959 -0.0634  0.1116
  374THF     H4 7853   4.573   0.331   3.039 -0.4749 -2.4248 -0.1143
  374THF     H5 7854   4.689   0.409   2.923  1.8226 -2.6205  2.5674
  374THF     H6 7855   4.413   0.578   2.751 -0.3886  0.4493  1.7217
  374THF     H7 7856   4.586   0.546   2.729  1.7512 -3.1350  1.6522
  374THF     C8 7857   4.456   0.368   2.734  0.1462  0.6187  0.0435
  374THF     C9 7858   4.541   0.275   2.827 -0.0783 -0.3280  0.6049
  374THF    H10 7859   4.451   0.343   2.628 -0.1596  1.3320 -0.1171
  374THF    H11 7860   4.355   0.349   2.770  0.3683  1.0443  0.9265
  374THF    H12 7861   4.476   0.198   2.868  0.8627 -0.9692  0.9230
  374THF    H13 7862   4.613   0.218   2.769 -1.9778 -1.2668 -0.9415
  375THF     O1 7863   2.293   1.116   2.202 -0.1334  0.3565  0.2466
  375THF     C2 7864   2.372   1.206   2.276 -0.1034  0.6251  0.2171
  375THF     C3 7865   2.311   1.137   2.062  0.4005  0.2953 -0.3953
  375THF     H4 7866   2.377   1.182   2.382 -0.0992 -0.1926  0.0343
  375THF     H5 7867   2.337   1.307   2.255  1.3580  1.5346  1.9125
  375THF     H6 7868   2.279   1.054   1.999  0.5782 -0.1173  0.0507
  375THF     H7 7869   2.246   1.220   2.034  0.8479  0.6379 -0.4228
  375THF     C8 7870   2.460   1.174   2.050  0.1914 -0.2585 -0.3823
  375THF     C9 7871   2.504   1.183   2.198 -0.3928 -0.0001 -0.0613
  375THF    H10 7872   2.484   1.272   2.007  1.9395 -0.3423  0.3061
  375THF    H11 7873   2.521   1.101   1.996  1.4135  0.9260 -0.6746
  375THF    H12 7874   2.556   1.088   2.210  1.3635  0.8520 -0.5238
  375THF    H13 7875   2.582   1.256   2.223 -0.8086  0.4801 -0.1574
  376THF     O1 7876   1.269   1.140   0.156  0.2507 -0.0068 -0.3456
  376THF     C2 7877   1.399   1.079   0.144  0.4206  0.4813 -1.0474
  376THF     C3 7878   1.266   1.245   0.057  0.0792 -0.1416  0.3579
  376THF     H4 7879   1.391   0.976   0.179 -0.4547  0.9278  0.0810
  376THF     H5 7880   1.469   1.129   0.211  1.2679 -0.4798 -1.1727
  376THF     H6 7881   1.168   1.289   0.041  0.4672  0.3139 -0.8081
  376THF     H7 7882   1.342   1.321   0.076  0.7061 -0.5916 -0.2826
  376THF     C8 7883   1.320   1.161  -0.062  0.1085  0.6127 -0.0037
  376THF     C9 7884   1.441   1.089   0.001  0.0299 -0.5400  0.1605
  376THF    H10 7885   1.363   1.226  -0.137  0.7637  1.7676  1.3144
  376THF    H11 7886   1.252   1.082  -0.094  0.0755  0.5794  0.1433
  376THF    H12 7887   1.461   0.996  -0.052 -0.2019  1.0664 -2.9811
  376THF    H13 7888   1.528   1.155   0.002 -0.3139 -0.0824  0.9166
  377THF     O1 7889   5.136   3.260   1.130  0.4573 -0.1147  0.4613
  377THF     C2 7890   5.077   3.311   1.006 -0.2212 -0.0133  0.4292
  377THF     C3 7891   5.091   3.337   1.238  0.2055 -0.1678  0.1009
  377THF     H4 7892   5.060   3.232   0.931  0.2447  1.1750 -0.9744
  377THF     H5 7893   5.144   3.384   0.960 -0.8929  0.5667  0.3584
  377THF     H6 7894   5.025   3.273   1.296 -0.8758 -0.2202 -1.1321
  377THF     H7 7895   5.164   3.376   1.309 -0.5433  2.5744 -0.5162
  377THF     C8 7896   5.018   3.454   1.175  0.5062 -0.1718  0.1203
  377THF     C9 7897   4.956   3.392   1.054  0.0157 -0.0513  0.4851
  377THF    H10 7898   5.089   3.534   1.156 -1.3104  1.1110 -1.7991
  377THF    H11 7899   4.947   3.497   1.245  2.2371  1.2568  1.0979
  377THF    H12 7900   4.870   3.335   1.090 -1.5295  1.7281 -0.2178
  377THF    H13 7901   4.926   3.465   0.979  0.8576 -3.5261 -3.5542
  378THF     O1 7902   5.160   3.057   0.426 -0.4378  0.1756  0.5316
  378THF     C2 7903   5.220   2.933   0.447 -0.2620 -0.2731 -0.2363
  378THF     C3 7904   5.142   3.110   0.553 -0.5530  0.4006 -0.1750
  378THF     H4 7905   5.322   2.951   0.482  0.4427 -3.6117 -0.2590
  378THF     H5 7906   5.227   2.873   0.356  2.5293 -1.5136  0.6690
  378THF     H6 7907   5.237   3.145   0.594 -1.0388  1.1049  0.3683
  378THF     H7 7908   5.067   3.189   0.555 -1.4908 -0.4653 -0.4089
  378THF     C8 7909   5.100   2.988   0.640 -0.0313  0.4196  0.1554
  378THF     C9 7910   5.120   2.875   0.541  0.2650  0.6298  0.1797
  378THF    H10 7911   4.996   2.998   0.672 -0.3481 -0.1915 -0.6495
  378THF    H11 7912   5.168   2.987   0.725  1.2965 -1.6974 -0.8366
  378THF    H12 7913   5.158   2.788   0.594 -1.1342  1.7743  3.3127
  378THF    H13 7914   5.028   2.848   0.488  1.9853 -2.1268 -1.6336
  379THF     O1 7915   2.546   3.121   1.448 -0.4889 -0.0723 -0.6446
  379THF     C2 7916   2.666   3.111   1.381  0.1767  0.0505  1.4042
  379THF     C3 7917   2.453   3.039   1.376  0.2104 -0.3748  0.5692
  379THF     H4 7918   2.709   3.024   1.431  2.1444  0.1236 -0.0223
  379THF     H5 7919   2.732   3.196   1.394  1.7068 -0.4757 -1.7713
  379THF     H6 7920   2.467   2.937   1.410 -1.3078 -0.3271  1.4545
  379THF     H7 7921   2.351   3.068   1.402  1.3604  2.2881  2.6095
  379THF     C8 7922   2.481   3.064   1.228  1.2646 -0.2774 -0.0749
  379THF     C9 7923   2.629   3.100   1.232 -0.0536  0.4203 -0.6222
  379THF    H10 7924   2.431   3.157   1.201 -0.7692 -1.8344 -2.0240
  379THF    H11 7925   2.455   2.981   1.163 -0.1001 -0.3960  0.6014
  379THF    H12 7926   2.696   3.031   1.180 -0.8017 -0.0857 -0.9317
  379THF    H13 7927   2.655   3.192   1.179 -2.0098  1.5554  0.3030
  380THF     O1 7928   3.071   2.280   3.304  0.2334 -0.7560  0.1782
  380THF     C2 7929   2.946   2.269   3.370 -0.5141  0.5120 -0.4558
  380THF     C3 7930   3.171   2.293   3.402 -0.9879  0.5454  0.2897
  380THF     H4 7931   2.931   2.165   3.397 -0.7922  0.7314  0.2684
  380THF     H5 7932   2.863   2.299   3.307 -0.3577  0.5887 -0.6266
  380THF     H6 7933   3.232   2.204   3.411  1.6618  2.2783  0.6365
  380THF     H7 7934   3.236   2.378   3.382  0.2204 -0.4153  0.0582
  380THF     C8 7935   3.100   2.320   3.537 -0.0177  0.0548 -0.0677
  380THF     C9 7936   2.963   2.355   3.489  0.5571  0.4432  0.2927
  380THF    H10 7937   3.151   2.403   3.586  1.2595  0.7702 -2.4392
  380THF    H11 7938   3.102   2.233   3.602  0.9391 -0.1629 -0.3697
  380THF    H12 7939   2.891   2.336   3.569  0.7212 -2.3659 -0.1304
  380THF    H13 7940   2.964   2.461   3.461 -0.2587  0.8177  1.5554
  381THF     O1 7941   2.060   5.302   3.757 -0.7209  0.1937  0.0313
  381THF     C2 7942   2.097   5.283   3.624 -0.4122 -0.1076  0.0000
  381THF     C3 7943   2.178   5.288   3.843 -0.5640 -0.7384  0.4678
  381THF     H4 7944   2.022   5.328   3.558  1.0374  1.5211 -0.6211
  381THF     H5 7945   2.108   5.175   3.613 -1.5631 -0.4538  1.9159
  381THF     H6 7946   2.176   5.361   3.923  1.4186  1.9349 -1.6888
  381THF     H7 7947   2.186   5.193   3.895 -0.3364  0.4134  2.6174
  381THF     C8 7948   2.292   5.320   3.744 -0.3848  0.1622 -0.1775
  381THF     C9 7949   2.223   5.367   3.622  0.0136 -0.4026 -0.3655
  381THF    H10 7950   2.350   5.229   3.722 -2.3383 -1.4230  0.8921
  381THF    H11 7951   2.356   5.399   3.784  0.3371  0.2042 -1.3676
  381THF    H12 7952   2.199   5.473   3.627  0.4356 -0.2697 -1.0062
  381THF    H13 7953   2.282   5.364   3.530 -0.1419  1.9976 -0.6122
  382THF     O1 7954   5.269   4.049   2.779 -0.7654  0.5358  0.8580
  382THF     C2 7955   5.208   4.173   2.794  0.9993 -0.5387 -0.5249
  382THF     C3 7956   5.410   4.072   2.797  0.1045 -1.3349 -0.3508
  382THF     H4 7957   5.101   4.178   2.815  1.4041 -1.9173  2.2061
  382THF     H5 7958   5.227   4.240   2.710  1.9905 -0.6699 -0.4126
  382THF     H6 7959   5.480   3.990   2.816  1.1258 -0.7433 -1.4508
  382THF     H7 7960   5.441   4.121   2.705  0.5883  2.0278  1.4665
  382THF     C8 7961   5.412   4.150   2.927  0.4315  0.0374  0.0680
  382THF     C9 7962   5.282   4.237   2.915  0.6616  0.0516  0.8543
  382THF    H10 7963   5.505   4.203   2.945  0.7230 -0.7488  0.9667
  382THF    H11 7964   5.399   4.073   3.003 -0.1916 -2.9646 -2.8240
  382THF    H12 7965   5.216   4.229   3.001 -0.1854  0.5288  0.2599
  382THF    H13 7966   5.305   4.341   2.893 -1.1444  0.1687 -0.6773
  383THF     O1 7967   2.819   1.032   4.944 -0.2330  0.4243  0.4369
  383THF     C2 7968   2.804   0.892   4.924 -0.0897 -0.2249 -0.3053
  383THF     C3 7969   2.744   1.067   5.055 -0.2495 -0.9434 -0.6996
  383THF     H4 7970   2.905   0.857   4.947  0.8570  1.1982 -2.0654
  383THF     H5 7971   2.774   0.867   4.823 -0.6776 -0.0187 -0.1886
  383THF     H6 7972   2.805   1.052   5.145  1.0511 -1.1607 -1.5824
  383THF     H7 7973   2.711   1.171   5.053 -0.2862 -0.9365 -0.0686
  383THF     C8 7974   2.625   0.968   5.054  0.1030  0.0527 -0.5940
  383THF     C9 7975   2.701   0.843   5.023  0.6127 -0.3701  0.4367
  383THF    H10 7976   2.535   0.987   4.996 -1.1958  0.6532  1.5153
  383THF    H11 7977   2.591   0.945   5.155  1.4471 -1.1086 -0.3574
  383THF    H12 7978   2.752   0.804   5.111  1.7214  1.2689  0.5676
  383THF    H13 7979   2.633   0.769   4.981  0.2024 -0.8305  1.8556
  384THF     O1 7980   2.571   2.466   5.127  0.0109  0.2091  0.2258
  384THF     C2 7981   2.592   2.383   5.011  0.1696  0.0106 -0.4791
  384THF     C3 7982   2.448   2.423   5.196  0.0856  0.6218 -0.2551
  384THF     H4 7983   2.656   2.297   5.031 -0.9920 -0.4361  1.5830
  384THF     H5 7984   2.648   2.429   4.929 -1.0613  1.3199 -0.6289
  384THF     H6 7985   2.478   2.357   5.278  0.2873 -2.7553 -2.8381
  384THF     H7 7986   2.387   2.508   5.225  1.4331  1.9891 -1.3089
  384THF     C8 7987   2.374   2.330   5.099 -0.8912  0.1922  0.3403
  384THF     C9 7988   2.444   2.357   4.964 -0.4943 -0.3829 -0.7687
  384THF    H10 7989   2.265   2.342   5.102 -1.1871 -1.9051 -0.4628
  384THF    H11 7990   2.391   2.224   5.117  0.4388 -0.4836 -3.8704
  384THF    H12 7991   2.457   2.272   4.897  1.1894 -0.1200 -0.8184
  384THF    H13 7992   2.410   2.449   4.916  2.5172  1.2111 -0.0908
  385THF     O1 7993   2.301   0.331   5.205  0.7080 -0.1060  0.3156
  385THF     C2 7994   2.326   0.190   5.197 -0.1804  0.5392  1.3466
  385THF     C3 7995   2.330   0.372   5.340  0.2987  0.1175 -0.6043
  385THF     H4 7996   2.356   0.159   5.096 -1.0515 -1.2016  1.5807
  385THF     H5 7997   2.245   0.131   5.240 -0.3345 -0.7918 -0.6033
  385THF     H6 7998   2.345   0.480   5.347  1.0384 -0.0101 -0.1216
  385THF     H7 7999   2.244   0.353   5.405  2.0253  1.2193  2.1747
  385THF     C8 8000   2.460   0.299   5.366  0.4411  0.1302  0.4426
  385THF     C9 8001   2.452   0.168   5.280  0.2526 -0.3977 -0.4753
  385THF    H10 8002   2.464   0.271   5.471  0.0296  1.2595  0.7764
  385THF    H11 8003   2.548   0.359   5.345 -0.2508  1.5038  1.3265
  385THF    H12 8004   2.536   0.168   5.211  0.3980 -0.1192 -0.3030
  385THF    H13 8005   2.459   0.081   5.346  1.0741 -1.6127 -2.1130
  386THF     O1 8006   0.112   5.072   4.092 -0.2663  0.1999 -0.2875
  386THF     C2 8007   0.235   5.098   4.021 -0.7310  0.5654 -0.1929
  386THF     C3 8008   0.081   4.932   4.081 -0.2930 -0.2092 -0.7694
  386THF     H4 8009   0.293   5.185   4.050 -0.3689  0.5009 -0.7253
  386THF     H5 8010   0.206   5.105   3.916  1.6815 -0.3060 -0.9678
  386THF     H6 8011   0.037   4.897   4.174 -1.1039  0.9840 -0.6776
  386THF     H7 8012   0.015   4.917   3.995 -1.5347  0.7644 -0.0293
  386THF     C8 8013   0.216   4.862   4.046  0.7869 -0.4316 -0.1956
  386THF     C9 8014   0.317   4.972   4.059  0.0234 -0.4253 -0.0612
  386THF    H10 8015   0.218   4.811   3.950  1.6017 -2.8602  1.0280
  386THF    H11 8016   0.242   4.784   4.118 -1.2539 -2.3254 -1.3803
  386THF    H12 8017   0.354   4.983   4.160  0.5822 -0.7086 -0.2330
  386THF    H13 8018   0.404   4.955   3.995  0.0928  0.6733 -0.2788
  387THF     O1 8019   3.300   5.216   4.476 -0.2274  0.4019 -0.3449
  387THF     C2 8020   3.184   5.171   4.410 -0.1689 -0.5103 -0.2813
  387THF     C3 8021   3.412   5.201   4.387 -0.4770 -0.1763 -0.3803
  387THF     H4 8022   3.133   5.262   4.378  0.5078  0.9015  2.3764
  387THF     H5 8023   3.114   5.115   4.472 -1.3247  0.4013 -0.7154
  387THF     H6 8024   3.477   5.288   4.382  2.5615 -2.2375  0.7927
  387THF     H7 8025   3.476   5.123   4.428  1.5091  1.6619  0.2191
  387THF     C8 8026   3.348   5.162   4.249  0.1240 -0.2490 -0.4640
  387THF     C9 8027   3.229   5.084   4.287  0.3788 -0.0441 -0.5952
  387THF    H10 8028   3.416   5.107   4.184  0.7204  1.6078 -1.4757
  387THF    H11 8029   3.310   5.248   4.193 -0.5211 -0.2763 -0.0714
  387THF    H12 8030   3.153   5.076   4.210  0.4601  1.5491 -0.8795
  387THF    H13 8031   3.238   4.986   4.333 -3.3598  0.2576  1.1551
  388THF     O1 8032   4.042   1.634   1.961  0.1048  0.4981 -0.0291
  388THF     C2 8033   4.156   1.545   1.990 -0.0902 -0.1100 -0.2576
  388THF     C3 8034   4.018   1.604   1.822  0.0748  0.2788  0.7011
  388THF     H4 8035   4.111   1.452   2.025 -1.8208  0.8298  0.1382
  388THF     H5 8036   4.212   1.577   2.078 -0.3866 -2.2930  0.8173
  388THF     H6 8037   3.945   1.526   1.799  0.6889  0.1588 -0.9765
  388THF     H7 8038   3.979   1.695   1.775  1.3099 -0.2176 -1.4086
  388THF     C8 8039   4.151   1.572   1.761  0.1890  0.7611  0.4828
  388THF     C9 8040   4.251   1.546   1.871  0.6200 -0.8780  0.2929
  388THF    H10 8041   4.189   1.655   1.701 -0.0473  2.0670  2.0763
  388THF    H11 8042   4.145   1.483   1.698 -0.3329 -0.1416  1.7601
  388THF    H12 8043   4.295   1.448   1.850  0.6583 -0.5593 -1.2210
  388THF    H13 8044   4.328   1.623   1.874 -1.3072  1.1987 -0.8561
  389THF     O1 8045   1.590   3.419   4.872  0.3355  0.3040  0.4583
  389THF     C2 8046   1.539   3.548   4.897  0.5131 -0.5048 -0.2508
  389THF     C3 8047   1.494   3.321   4.910  0.2761 -0.2289  0.0876
  389THF     H4 8048   1.477   3.574   4.811 -0.6707 -0.6343  0.5388
  389THF     H5 8049   1.623   3.618   4.900  0.6676 -0.6978 -0.0586
  389THF     H6 8050   1.425   3.280   4.837  0.2020  0.5941 -0.3107
  389THF     H7 8051   1.554   3.239   4.950  0.6592  0.8290  1.7957
  389THF     C8 8052   1.422   3.386   5.033  0.0615 -0.1293  0.7614
  389THF     C9 8053   1.460   3.531   5.024 -0.8751  0.1918  0.4263
  389THF    H10 8054   1.451   3.331   5.122  0.1845 -2.4605 -0.6255
  389THF    H11 8055   1.315   3.382   5.013  0.5005  2.0378 -3.0869
  389THF    H12 8056   1.378   3.602   5.035 -1.9690 -0.8296 -0.7658
  389THF    H13 8057   1.527   3.548   5.108  3.6809 -0.8331 -2.6633
  390THF     O1 8058   0.653   1.260   2.070  0.3370 -0.0694 -0.1928
  390THF     C2 8059   0.754   1.317   2.147 -0.4696  0.2547  0.5109
  390THF     C3 8060   0.715   1.176   1.970 -0.1680 -0.1054 -0.4667
  390THF     H4 8061   0.702   1.368   2.229 -3.4773 -0.6500 -0.6959
  390THF     H5 8062   0.813   1.389   2.090  1.2481 -0.3104  1.5049
  390THF     H6 8063   0.639   1.115   1.922  2.8128 -0.6881 -5.1433
  390THF     H7 8064   0.765   1.230   1.889  2.1997 -1.2630  0.1326
  390THF     C8 8065   0.820   1.110   2.059  0.1380 -0.0629  0.1722
  390THF     C9 8066   0.834   1.193   2.185  0.0129 -0.7797  0.3654
  390THF    H10 8067   0.918   1.087   2.018  1.0905  1.7258  1.3174
  390THF    H11 8068   0.783   1.011   2.082 -1.7930  0.4417 -0.5298
  390THF    H12 8069   0.783   1.154   2.274  0.5250 -2.1895  0.0639
  390THF    H13 8070   0.937   1.207   2.218  0.0037 -1.2435  0.6077
  391THF     O1 8071   4.880   5.234   5.409 -0.2238 -0.2325 -0.0447
  391THF     C2 8072   4.933   5.287   5.281 -0.2435  0.4639 -0.0456
  391THF     C3 8073   4.992   5.199   5.493 -0.1537 -0.4304  0.2489
  391THF     H4 8074   4.866   5.364   5.242  2.6502  2.1867 -2.0674
  391THF     H5 8075   4.949   5.204   5.213  1.7794  1.3018 -0.6586
  391THF     H6 8076   4.964   5.171   5.594 -0.0515 -1.8486 -0.0890
  391THF     H7 8077   5.038   5.111   5.448 -1.6236 -1.3157  0.3958
  391THF     C8 8078   5.073   5.325   5.468  0.2098  0.0230 -1.0467
  391THF     C9 8079   5.059   5.362   5.320 -0.4317 -0.4461  0.3882
  391THF    H10 8080   5.177   5.304   5.493  0.3979 -0.3572 -2.0943
  391THF    H11 8081   5.047   5.408   5.534 -2.9248 -2.0014  0.5007
  391THF    H12 8082   5.058   5.469   5.300  4.7416 -0.3985 -1.0476
  391THF    H13 8083   5.148   5.315   5.277 -0.3864 -0.8810  0.9338
  392THF     O1 8084   5.118   2.493   2.279 -0.5778  0.0223 -0.6190
  392THF     C2 8085   5.246   2.538   2.243 -0.4368 -0.4165 -0.7732
  392THF     C3 8086   5.112   2.353   2.251  0.7987  1.0093  0.1063
  392THF     H4 8087   5.260   2.641   2.275 -1.2679  0.0096 -1.7027
  392THF     H5 8088   5.249   2.549   2.134 -0.0657  0.6396 -0.6700
  392THF     H6 8089   5.048   2.310   2.328  1.0444  0.4490  0.0087
  392THF     H7 8090   5.091   2.330   2.146 -0.3451  3.1558 -0.1876
  392THF     C8 8091   5.244   2.301   2.291  0.1269  0.9929 -0.6258
  392THF     C9 8092   5.338   2.424   2.289 -0.7957  0.1866 -0.0513
  392THF    H10 8093   5.276   2.216   2.229 -0.9011 -1.0090  1.4323
  392THF    H11 8094   5.240   2.255   2.389 -2.0128  0.1323 -1.0702
  392THF    H12 8095   5.373   2.447   2.390  0.4616  2.0963 -0.8661
  392THF    H13 8096   5.418   2.399   2.219 -0.6204  1.6311 -0.4071
  393THF     O1 8097   1.383   5.046   5.488 -0.0222 -0.5659  0.2334
  393THF     C2 8098   1.262   4.972   5.527  0.1219  0.9210 -0.0107
  393THF     C3 8099   1.487   4.990   5.573  0.5519 -0.3541  0.0165
  393THF     H4 8100   1.181   4.978   5.454 -0.3588 -0.3115  0.4022
  393THF     H5 8101   1.218   5.010   5.619  1.1895  0.6995  0.5994
  393THF     H6 8102   1.585   5.033   5.547 -0.2417  0.7291 -1.3468
  393THF     H7 8103   1.462   5.019   5.675  0.5837 -1.7324  0.4369
  393THF     C8 8104   1.463   4.841   5.566  0.4771 -0.4233  0.3418
  393THF     C9 8105   1.314   4.831   5.546  0.1240 -0.1322  0.2151
  393THF    H10 8106   1.498   4.780   5.649 -1.6852 -1.3398  0.6359
  393THF    H11 8107   1.518   4.799   5.481  0.8087 -0.6529  0.6669
  393THF    H12 8108   1.297   4.785   5.449  1.0306 -0.0115 -0.0124
  393THF    H13 8109   1.264   4.776   5.626 -0.5398 -1.1801 -0.8861
  394THF     O1 8110   3.460   2.896   2.467  0.2978 -0.1569  0.4484
  394THF     C2 8111   3.365   2.862   2.372 -0.8573  0.3532 -0.1039
  394THF     C3 8112   3.417   2.831   2.591  0.0310 -0.2046  0.4042
  394THF     H4 8113   3.398   2.766   2.334 -1.2734 -0.6116  1.8296
  394THF     H5 8114   3.359   2.921   2.280 -1.3654 -0.9241 -0.9216
  394THF     H6 8115   3.422   2.723   2.577 -0.6974 -0.2462  0.4690
  394THF     H7 8116   3.480   2.860   2.676 -0.0256  0.8067  0.1094
  394THF     C8 8117   3.272   2.873   2.594 -0.2856 -0.2295 -0.1001
  394THF     C9 8118   3.233   2.852   2.450 -0.2029  0.5913 -0.1041
  394THF    H10 8119   3.272   2.979   2.617 -0.0372 -0.0638 -0.8370
  394THF    H11 8120   3.211   2.825   2.670 -0.8021  0.0546 -0.3326
  394THF    H12 8121   3.175   2.761   2.433  1.4765 -0.4980 -0.2906
  394THF    H13 8122   3.163   2.935   2.438  1.0064  1.8533  1.2431
  395THF     O1 8123   4.651   0.149   0.974 -0.0910 -0.0936 -0.3621
  395THF     C2 8124   4.551   0.095   0.880 -0.0491  0.1979 -0.2813
  395THF     C3 8125   4.780   0.122   0.922  0.7637 -0.1465 -0.1714
  395THF     H4 8126   4.522   0.171   0.808 -0.4665 -0.1620 -0.4943
  395THF     H5 8127   4.467   0.069   0.943  0.8811 -0.4925  0.7012
  395THF     H6 8128   4.799   0.178   0.830 -1.6413 -0.8195 -1.1404
  395THF     H7 8129   4.843   0.154   1.005  0.3265  0.1039  0.0667
  395THF     C8 8130   4.762  -0.025   0.882 -0.1657  0.1887 -0.6915
  395THF     C9 8131   4.628  -0.022   0.818  0.2343  0.1599  0.1849
  395THF    H10 8132   4.750  -0.100   0.961  0.3020  0.5727 -0.2574
  395THF    H11 8133   4.831  -0.055   0.804  0.1371  0.9237 -0.7063
  395THF    H12 8134   4.635  -0.001   0.712 -0.5174 -2.0306 -0.3439
  395THF    H13 8135   4.582  -0.120   0.829  1.7664 -0.6437 -0.3269
  396THF     O1 8136   3.110   1.805   2.770  0.0504  0.0347 -0.2553
  396THF     C2 8137   3.119   1.885   2.657  0.0965 -1.0257  0.0370
  396THF     C3 8138   3.217   1.710   2.771  0.2346 -0.4640 -0.1997
  396THF     H4 8139   3.071   1.980   2.679  0.4537 -0.3866 -1.7942
  396THF     H5 8140   3.072   1.829   2.576 -0.2385 -0.4178 -0.1964
  396THF     H6 8141   3.239   1.681   2.874 -0.5849 -0.7592 -0.1032
  396THF     H7 8142   3.187   1.619   2.719 -1.3338 -0.5646  0.8216
  396THF     C8 8143   3.332   1.785   2.697 -0.0006  0.4272 -0.0830
  396THF     C9 8144   3.261   1.909   2.639 -1.2317 -0.4993  0.1076
  396THF    H10 8145   3.374   1.722   2.618 -3.2342  0.8455 -2.3271
  396THF    H11 8146   3.409   1.803   2.772 -1.1367  0.0217  1.2172
  396THF    H12 8147   3.292   2.000   2.689  1.1295 -1.1120 -0.1236
  396THF    H13 8148   3.275   1.920   2.531 -1.0746  0.5305  0.2259
  397THF     O1 8149   1.241   1.498   3.026 -0.1574  0.0045 -0.2636
  397THF     C2 8150   1.313   1.440   3.133 -0.5976  0.4668 -0.6237
  397THF     C3 8151   1.333   1.544   2.932 -0.7288  0.6581 -0.2521
  397THF     H4 8152   1.325   1.337   3.100  1.3328 -0.2129  1.9149
  397THF     H5 8153   1.255   1.433   3.225 -1.0830 -1.2827 -1.0245
  397THF     H6 8154   1.385   1.452   2.904  1.3903  1.2300  1.5116
  397THF     H7 8155   1.291   1.603   2.851  1.5026  0.7288 -1.4690
  397THF     C8 8156   1.425   1.618   3.029 -0.2341 -0.1470  0.5245
  397THF     C9 8157   1.438   1.526   3.147  0.1352  0.0036  0.5594
  397THF    H10 8158   1.390   1.718   3.054  0.0797  0.5587 -1.6546
  397THF    H11 8159   1.525   1.642   2.991 -0.2122  0.2646  0.8324
  397THF    H12 8160   1.530   1.466   3.151 -0.6306 -1.1431  2.2373
  397THF    H13 8161   1.433   1.590   3.235 -1.5740  0.8584 -0.1381
  398THF     O1 8162   4.518   4.859   3.694 -0.3968 -0.1474 -0.0142
  398THF     C2 8163   4.434   4.846   3.807 -0.1801 -0.2049  0.1820
  398THF     C3 8164   4.626   4.940   3.724 -0.2088 -0.1268  0.0089
  398THF     H4 8165   4.468   4.775   3.883 -1.8697 -1.4374 -0.1566
  398THF     H5 8166   4.330   4.831   3.778 -1.1499  2.1498  2.0815
  398THF     H6 8167   4.688   4.874   3.784 -0.3682  0.4988  0.8739
  398THF     H7 8168   4.663   4.979   3.629  0.2688  0.8206  0.5779
  398THF     C8 8169   4.569   5.038   3.828 -0.1067 -0.0164 -0.6019
  398THF     C9 8170   4.436   4.979   3.879 -0.8525 -0.1670  0.1892
  398THF    H10 8171   4.551   5.126   3.767  3.7301  1.0265 -0.4750
  398THF    H11 8172   4.629   5.061   3.916  0.9709 -2.4850 -0.5939
  398THF    H12 8173   4.424   4.971   3.988 -3.5165 -1.8021 -0.1166
  398THF    H13 8174   4.356   5.046   3.847  0.9679  1.8140 -0.4197
  399THF     O1 8175   4.412   4.153   0.806  0.0743 -0.3604  0.3814
  399THF     C2 8176   4.318   4.056   0.777  0.4730  0.3294 -0.6409
  399THF     C3 8177   4.426   4.159   0.953  0.0692 -0.4853  0.6915
  399THF     H4 8178   4.365   3.959   0.791 -2.3011 -0.7545  2.6673
  399THF     H5 8179   4.275   4.058   0.677 -2.0450 -0.0758  0.3669
  399THF     H6 8180   4.494   4.088   0.999  0.7223  0.2859  0.9456
  399THF     H7 8181   4.444   4.262   0.985  1.8421 -0.4062 -0.3813
  399THF     C8 8182   4.287   4.115   0.999  0.5131 -0.3465  0.0434
  399THF     C9 8183   4.208   4.069   0.874 -0.2958 -0.4364 -0.2542
  399THF    H10 8184   4.233   4.191   1.055 -1.2067 -0.4549 -1.3823
  399THF    H11 8185   4.312   4.026   1.057 -2.1713 -1.1227  0.1135
  399THF    H12 8186   4.167   3.969   0.892 -0.3660  0.0862  3.3574
  399THF    H13 8187   4.129   4.139   0.848  0.4135  0.1839 -0.7435
  400THF     O1 8188   4.316   1.797   3.031 -0.0469 -0.2588 -0.1208
  400THF     C2 8189   4.229   1.695   2.973 -0.4572  0.6263  0.3794
  400THF     C3 8190   4.442   1.787   2.980 -0.7241 -1.0647  0.5829
  400THF     H4 8191   4.132   1.737   2.999 -1.3598  0.2045 -1.9955
  400THF     H5 8192   4.240   1.602   3.027  0.1698  0.2464 -0.3915
  400THF     H6 8193   4.479   1.889   2.987 -0.5749 -1.1461  1.0376
  400THF     H7 8194   4.519   1.732   3.033 -0.4539 -1.4934 -0.2384
  400THF     C8 8195   4.418   1.742   2.833  0.1342 -0.1831 -0.0016
  400THF     C9 8196   4.273   1.696   2.830 -0.4837 -0.1108  0.0022
  400THF    H10 8197   4.485   1.663   2.799  1.6290  0.4249  1.4085
  400THF    H11 8198   4.455   1.813   2.759  0.8631 -1.8355 -1.3009
  400THF    H12 8199   4.213   1.772   2.781 -1.4089 -1.6880 -1.4223
  400THF    H13 8200   4.252   1.607   2.771  1.1562  0.9837 -2.3960
  401THF     O1 8201   1.496   2.289   4.103  0.3797  0.0568 -0.5756
  401THF     C2 8202   1.525   2.328   4.236  0.3311 -0.3203 -0.5096
  401THF     C3 8203   1.350   2.294   4.083  0.3253 -0.2651 -0.3020
  401THF     H4 8204   1.626   2.368   4.239 -0.0511  0.5895  0.9420
  401THF     H5 8205   1.518   2.240   4.299 -1.9050 -0.0218 -0.2385
  401THF     H6 8206   1.325   2.350   3.993  2.4589 -0.3058 -0.9877
  401THF     H7 8207   1.300   2.198   4.073 -0.1165 -0.1249  0.4903
  401THF     C8 8208   1.290   2.362   4.214 -0.3056 -0.5992 -0.4130
  401THF     C9 8209   1.420   2.427   4.269 -0.1764  0.3058 -0.4933
  401THF    H10 8210   1.255   2.284   4.283 -0.1112  0.5975  1.0855
  401THF    H11 8211   1.206   2.428   4.192  0.7863  0.7351 -0.7007
  401THF    H12 8212   1.443   2.517   4.211 -0.4337 -1.4221 -3.4690
  401THF    H13 8213   1.416   2.446   4.376  1.4689  1.0644 -0.5275
  402THF     O1 8214   4.122   0.771   4.644  0.5598 -0.6764  0.1252
  402THF     C2 8215   4.155   0.817   4.777 -0.3901 -0.7351  0.4062
  402THF     C3 8216   3.975   0.759   4.642 -0.4200 -0.1894 -0.3503
  402THF     H4 8217   4.144   0.925   4.775 -2.2095 -0.8991  0.2352
  402THF     H5 8218   4.254   0.787   4.811  0.2853 -0.5291 -1.2467
  402THF     H6 8219   3.927   0.841   4.588 -0.3398 -1.2036 -2.0427
  402THF     H7 8220   3.945   0.678   4.576 -0.3364 -0.4519 -0.0703
  402THF     C8 8221   3.923   0.749   4.786 -0.0413  0.2929  0.5316
  402THF     C9 8222   4.041   0.767   4.868 -0.0333 -0.5696 -0.4741
  402THF    H10 8223   3.891   0.645   4.793  0.7851 -0.0733 -0.7256
  402THF    H11 8224   3.844   0.818   4.816  1.0152  1.9344 -0.2891
  402THF    H12 8225   4.019   0.849   4.936 -0.1018 -0.9732 -0.0034
  402THF    H13 8226   4.072   0.676   4.920  2.4428  0.6125  0.2597
  403THF     O1 8227   3.669   4.421   2.433  0.5623 -0.3182 -0.2302
  403THF     C2 8228   3.670   4.558   2.476  0.1213  0.3416 -0.1300
  403THF     C3 8229   3.745   4.415   2.317 -0.2658 -0.2809 -0.1467
  403THF     H4 8230   3.648   4.574   2.582  1.3661  0.4183  0.1325
  403THF     H5 8231   3.593   4.614   2.424  1.8834  2.3114 -0.7790
  403THF     H6 8232   3.807   4.326   2.327 -0.4471 -0.4001 -0.0882
  403THF     H7 8233   3.687   4.411   2.225  0.6344  3.4433 -1.0328
  403THF     C8 8234   3.838   4.535   2.316  0.0305  0.0221  0.1143
  403THF     C9 8235   3.812   4.609   2.447  0.0335  0.5246 -0.1385
  403THF    H10 8236   3.823   4.594   2.226 -0.5970 -2.6857 -1.6650
  403THF    H11 8237   3.939   4.496   2.326  0.4702  1.1707  0.2283
  403THF    H12 8238   3.875   4.585   2.533  0.6804  2.3697 -0.0521
  403THF    H13 8239   3.814   4.718   2.442 -1.0244  0.7185  2.1304
  404THF     O1 8240   0.592   4.328   1.341  0.1825  0.7524 -0.1623
  404THF     C2 8241   0.626   4.423   1.436  0.2440  0.3212 -0.4525
  404THF     C3 8242   0.515   4.223   1.404  0.4435 -0.3641  0.0372
  404THF     H4 8243   0.609   4.526   1.403 -1.4827  0.1968 -0.0429
  404THF     H5 8244   0.734   4.416   1.447  0.3608  1.0969 -0.9702
  404THF     H6 8245   0.411   4.237   1.373 -0.0143 -0.8502  1.2754
  404THF     H7 8246   0.536   4.123   1.366  0.2178  0.4250 -2.3364
  404THF     C8 8247   0.542   4.239   1.555  0.1453  0.2715  0.7642
  404THF     C9 8248   0.549   4.392   1.566 -0.5309  0.3978 -0.2599
  404THF    H10 8249   0.636   4.191   1.581  0.3868 -1.1038 -2.2860
  404THF    H11 8250   0.463   4.215   1.626 -3.6138  0.8895 -2.8270
  404THF    H12 8251   0.450   4.439   1.568 -1.6169 -1.7165 -0.6027
  404THF    H13 8252   0.590   4.432   1.659  1.0872  1.7485 -1.4941
  405THF     O1 8253   2.053   3.820   1.630  0.0650  0.8381  0.0392
  405THF     C2 8254   1.980   3.942   1.650  0.3217  0.3920 -0.2107
  405THF     C3 8255   1.971   3.705   1.660  0.0180 -0.3825  0.4489
  405THF     H4 8256   2.000   4.001   1.561  0.2681  0.3442 -0.2548
  405THF     H5 8257   2.013   4.004   1.733  0.9502 -1.1038  0.7101
  405THF     H6 8258   1.924   3.677   1.565 -0.7751  1.3306  0.2979
  405THF     H7 8259   2.018   3.622   1.713  0.9121  0.7575  1.4836
  405THF     C8 8260   1.845   3.765   1.729  0.2853 -0.4374 -0.2406
  405THF     C9 8261   1.838   3.909   1.675  1.1757  0.3511  0.9512
  405THF    H10 8262   1.859   3.770   1.837 -1.9161 -0.3455  0.0812
  405THF    H11 8263   1.754   3.708   1.712 -0.8604  1.5620 -1.1597
  405THF    H12 8264   1.778   3.922   1.585  1.3626  0.5383  0.8539
  405THF    H13 8265   1.787   3.982   1.738 -0.7627  2.2942 -2.5468
  406THF     O1 8266   0.110   2.842   3.604  0.9969 -0.1649  0.1365
  406THF     C2 8267   0.063   2.819   3.736  0.0280 -0.0748  0.0104
  406THF     C3 8268   0.197   2.736   3.556 -0.0360  0.1319  0.2115
  406THF     H4 8269  -0.007   2.735   3.732  1.6420 -1.5544  1.3944
  406THF     H5 8270   0.010   2.902   3.783 -0.5535 -0.2094 -0.3923
  406THF     H6 8271   0.128   2.655   3.534 -0.7996  0.0134  2.7277
  406THF     H7 8272   0.265   2.756   3.473  0.7017 -1.3902  0.4140
  406THF     C8 8273   0.272   2.709   3.689 -0.5468 -0.1562  0.6668
  406THF     C9 8274   0.195   2.779   3.795  0.0655 -0.2584  0.3500
  406THF    H10 8275   0.372   2.751   3.693 -0.6939  0.2347  0.3872
  406THF    H11 8276   0.278   2.601   3.693  1.2673 -0.2372 -1.6370
  406THF    H12 8277   0.164   2.710   3.874 -0.7714 -0.7472 -0.3795
  406THF    H13 8278   0.247   2.872   3.818  1.1513 -0.4653 -1.1251
  407THF     O1 8279   2.515   0.003   4.618 -0.7377 -0.1877  0.7582
  407THF     C2 8280   2.605   0.020   4.722 -0.3323  0.1215 -0.5846
  407THF     C3 8281   2.565   0.071   4.505 -0.3182  0.0926 -0.4082
  407THF     H4 8282   2.610  -0.074   4.777 -1.6304  0.5133  0.2515
  407THF     H5 8283   2.571   0.093   4.796 -0.9315 -1.4241  0.7287
  407THF     H6 8284   2.522   0.024   4.416 -0.0763 -2.6225  0.7815
  407THF     H7 8285   2.527   0.173   4.504  1.4017  0.7574 -0.5631
  407THF     C8 8286   2.720   0.062   4.510  1.1369 -0.2840  0.2126
  407THF     C9 8287   2.739   0.078   4.663  0.1164  0.2947  0.1697
  407THF    H10 8288   2.764   0.140   4.447 -1.3639  1.3002  0.2966
  407THF    H11 8289   2.767  -0.033   4.483 -1.1254 -0.7555 -2.5467
  407THF    H12 8290   2.831   0.042   4.708 -0.4415  0.2536  1.3060
  407THF    H13 8291   2.734   0.185   4.685  0.4152  0.2025  0.7054
  408THF     O1 8292   2.724   0.156   2.367 -0.7333  0.5422 -0.0745
  408THF     C2 8293   2.581   0.168   2.346  0.1814  0.1262 -0.5921
  408THF     C3 8294   2.777   0.060   2.278 -0.2611 -0.2655 -0.0627
  408THF     H4 8295   2.553   0.273   2.338  2.0708  0.7664  0.3860
  408THF     H5 8296   2.545   0.133   2.442  2.3901  0.5716  0.4842
  408THF     H6 8297   2.828   0.096   2.188 -1.9260  0.9767 -0.5573
  408THF     H7 8298   2.847  -0.005   2.330 -2.1207 -0.9134  1.7647
  408THF     C8 8299   2.658  -0.027   2.247 -0.2403 -0.4614 -0.6479
  408THF     C9 8300   2.547   0.073   2.236 -0.2472 -0.4403 -0.2844
  408THF    H10 8301   2.640  -0.105   2.320  0.2274  1.1442  1.2546
  408THF    H11 8302   2.677  -0.078   2.152  1.3825  0.8778 -1.1035
  408THF    H12 8303   2.554   0.116   2.136 -0.7151  1.7939  0.5733
  408THF    H13 8304   2.446   0.035   2.252  0.4288 -1.2974  2.4085
  409THF     O1 8305   0.992   2.108   0.075  1.1259  0.4077 -0.0468
  409THF     C2 8306   0.883   2.158  -0.002  0.5275 -0.4860  0.0537
  409THF     C3 8307   0.928   2.058   0.185 -0.4140 -0.4544 -0.2552
  409THF     H4 8308   0.905   2.168  -0.109  0.6608 -1.1700  0.0127
  409THF     H5 8309   0.851   2.252   0.042 -1.4070  0.6100 -3.2871
  409THF     H6 8310   0.988   1.976   0.225 -0.9937 -0.9720 -0.4383
  409THF     H7 8311   0.911   2.133   0.263  1.2105  1.4515 -1.6292
  409THF     C8 8312   0.785   2.010   0.154 -0.4385  0.0375 -0.1041
  409THF     C9 8313   0.778   2.050   0.010  1.0155 -0.7572  0.3636
  409THF    H10 8314   0.705   2.060   0.208 -0.4326  1.0041 -0.9642
  409THF    H11 8315   0.774   1.903   0.173  0.4426  0.3706  2.9669
  409THF    H12 8316   0.795   1.972  -0.065 -0.8102 -1.6095  0.7713
  409THF    H13 8317   0.676   2.082  -0.013  0.7052 -2.7901 -1.4293
  410THF     O1 8318   3.652   4.776   4.018  0.0528 -0.4340 -0.6405
  410THF     C2 8319   3.656   4.736   4.154  0.5751 -0.1421 -0.3938
  410THF     C3 8320   3.629   4.915   4.009 -0.0554 -0.2777 -0.0129
  410THF     H4 8321   3.747   4.679   4.171 -0.1069 -0.8076  1.2132
  410THF     H5 8322   3.578   4.662   4.171 -0.9318  1.0544 -1.7262
  410THF     H6 8323   3.670   4.963   3.921 -1.2413  0.3449 -0.2539
  410THF     H7 8324   3.522   4.935   4.018  0.0137 -0.7643  2.7779
  410THF     C8 8325   3.690   4.969   4.139  0.2890 -0.0914 -0.1156
  410THF     C9 8326   3.663   4.862   4.241  0.0863 -0.3930  0.0434
  410THF    H10 8327   3.660   5.072   4.158  4.2334  1.5294 -1.5335
  410THF    H11 8328   3.798   4.980   4.128  0.4480 -0.7612  0.6694
  410THF    H12 8329   3.736   4.860   4.321 -0.0014  1.4393  0.2079
  410THF    H13 8330   3.562   4.880   4.277  0.1715  2.0145 -0.7243
  411THF     O1 8331   1.217   3.644   5.430  0.1818 -0.0682  0.1580
  411THF     C2 8332   1.216   3.646   5.288  1.0225 -0.4840  0.4779
  411THF     C3 8333   1.143   3.542   5.472  0.7549  0.8447 -0.7301
  411THF     H4 8334   1.268   3.559   5.248 -0.3355 -0.9877 -0.2744
  411THF     H5 8335   1.265   3.742   5.270  2.2028 -1.4446 -1.9543
  411THF     H6 8336   1.189   3.443   5.470  1.0752  1.0010 -1.4961
  411THF     H7 8337   1.103   3.555   5.573  0.2254 -0.3288 -0.7671
  411THF     C8 8338   1.023   3.540   5.379 -0.0922 -0.0698  0.0083
  411THF     C9 8339   1.065   3.637   5.265  0.1339  0.1505 -0.0652
  411THF    H10 8340   0.926   3.569   5.420 -1.1120 -1.1627 -1.4883
  411THF    H11 8341   1.012   3.439   5.338 -0.2589 -0.2737  0.5387
  411THF    H12 8342   1.036   3.603   5.165 -1.5558  0.9992  0.0994
  411THF    H13 8343   1.015   3.733   5.272  1.4981  0.7957  1.4131
  412THF     O1 8344   3.359   3.922   3.100  0.3002  0.2996  0.2023
  412THF     C2 8345   3.422   3.871   3.219  0.4342 -0.2978 -0.0533
  412THF     C3 8346   3.232   3.966   3.136  0.7680 -0.0591  0.8004
  412THF     H4 8347   3.529   3.862   3.199  0.4170  1.0253 -0.8441
  412THF     H5 8348   3.369   3.777   3.236 -0.8164  0.4567  0.2886
  412THF     H6 8349   3.182   4.011   3.050  3.5179 -0.4931 -1.1592
  412THF     H7 8350   3.173   3.878   3.162  1.1522 -0.6772 -0.3542
  412THF     C8 8351   3.263   4.048   3.261  0.1131 -0.3499 -1.2104
  412THF     C9 8352   3.378   3.967   3.331  0.5548 -0.0647 -0.4692
  412THF    H10 8353   3.175   4.060   3.324 -0.0546  2.1313 -1.7974
  412THF    H11 8354   3.297   4.151   3.250 -0.6292 -0.1706 -1.9918
  412THF    H12 8355   3.465   4.026   3.360 -0.2555  1.0314 -0.2079
  412THF    H13 8356   3.340   3.917   3.419  0.7154 -0.1656 -0.4558
  413THF     O1 8357   5.004   4.488   2.765  0.0698  0.2908 -0.9188
  413THF     C2 8358   5.030   4.598   2.851 -0.0318 -0.4292 -0.5524
  413THF     C3 8359   4.863   4.447   2.795 -0.9388  0.2902  0.0332
  413THF     H4 8360   4.987   4.684   2.800  1.1508  0.1297 -0.6194
  413THF     H5 8361   5.137   4.616   2.856  0.1838 -1.7472  0.1575
  413THF     H6 8362   4.794   4.528   2.771  1.2483  2.2226 -0.0193
  413THF     H7 8363   4.824   4.359   2.742 -2.8985  0.7133  0.7003
  413THF     C8 8364   4.870   4.439   2.951 -0.0853 -0.7914 -0.0675
  413THF     C9 8365   4.969   4.555   2.987  0.3298  0.3319  0.1490
  413THF    H10 8366   4.921   4.348   2.981  0.5816 -0.1938  0.6636
  413THF    H11 8367   4.773   4.438   3.000 -0.0206 -1.3811  0.0591
  413THF    H12 8368   4.912   4.631   3.040 -0.0678 -0.2236  0.5331
  413THF    H13 8369   5.038   4.516   3.062  0.8873 -0.2162 -0.6381
  414THF     O1 8370   4.362   3.076   3.820  0.6034 -0.5738  0.6466
  414THF     C2 8371   4.302   2.972   3.894 -0.1629  0.3030 -0.5619
  414THF     C3 8372   4.460   3.138   3.908 -0.5965  0.6192 -0.2053
  414THF     H4 8373   4.328   2.874   3.856  1.0453 -0.7727  2.7117
  414THF     H5 8374   4.193   2.967   3.891 -0.2533  0.2987  1.4675
  414THF     H6 8375   4.558   3.095   3.889 -1.5162 -1.0008 -1.6158
  414THF     H7 8376   4.466   3.243   3.883  0.8027  0.7928  0.7065
  414THF     C8 8377   4.400   3.107   4.052  0.1381  0.0169 -0.1853
  414THF     C9 8378   4.351   2.967   4.040  0.0520 -0.0869 -0.7082
  414THF    H10 8379   4.315   3.169   4.078  0.1766  1.8492 -3.7541
  414THF    H11 8380   4.473   3.120   4.132 -0.2292 -0.5012  0.2368
  414THF    H12 8381   4.428   2.891   4.053 -0.9573 -0.9256  0.6341
  414THF    H13 8382   4.286   2.934   4.121  1.7949  0.5027  1.0029
  415THF     O1 8383   2.809   5.385   3.788 -0.4985  0.0975 -0.7740
  415THF     C2 8384   2.873   5.440   3.674  0.3872  0.3126  0.2434
  415THF     C3 8385   2.685   5.333   3.753 -0.2078 -0.3611  1.0127
  415THF     H4 8386   2.902   5.358   3.607  2.3261  2.5335 -1.8473
  415THF     H5 8387   2.954   5.503   3.711  1.1434 -0.1963 -0.4956
  415THF     H6 8388   2.675   5.241   3.696 -2.6587 -0.1556  1.0209
  415THF     H7 8389   2.615   5.324   3.836  0.1818 -0.0351  1.3765
  415THF     C8 8390   2.629   5.445   3.656 -0.1778 -0.1865 -0.5429
  415THF     C9 8391   2.751   5.520   3.609  0.0000  0.1486  0.7417
  415THF    H10 8392   2.556   5.513   3.700 -0.6937  0.1666 -1.9128
  415THF    H11 8393   2.561   5.398   3.584 -2.5113 -1.6611  2.3889
  415THF    H12 8394   2.769   5.518   3.502  1.6065  0.0307  0.9941
  415THF    H13 8395   2.762   5.627   3.631 -0.1618  1.0358 -2.8236
  416THF     O1 8396   1.794   5.433   3.206 -0.4111 -0.2357  0.5813
  416THF     C2 8397   1.741   5.346   3.300  0.5848 -1.0569 -0.9750
  416THF     C3 8398   1.688   5.515   3.165  0.2742  0.1720 -0.1641
  416THF     H4 8399   1.724   5.390   3.399  1.1647  0.0757 -1.3600
  416THF     H5 8400   1.805   5.259   3.308 -0.1716 -1.5387  0.1504
  416THF     H6 8401   1.680   5.608   3.221  0.3965  1.2394 -1.8528
  416THF     H7 8402   1.700   5.546   3.061 -1.3717 -1.3324 -0.8458
  416THF     C8 8403   1.559   5.433   3.179 -0.5037  0.0569  0.3998
  416THF     C9 8404   1.608   5.308   3.233 -0.7548  0.0941 -0.8988
  416THF    H10 8405   1.522   5.415   3.078  0.5894 -0.5479  0.0902
  416THF    H11 8406   1.484   5.473   3.247 -1.9809 -0.3273 -0.9291
  416THF    H12 8407   1.540   5.252   3.296  0.1710 -1.8782 -1.5380
  416THF    H13 8408   1.635   5.235   3.156 -0.2910  1.7544 -2.3649
  417THF     O1 8409   4.052   1.597   4.133 -0.4394 -0.1625 -0.3323
  417THF     C2 8410   4.050   1.556   4.271 -0.3486  0.7834  0.7496
  417THF     C3 8411   4.173   1.563   4.074  0.1152  0.0819 -0.4225
  417THF     H4 8412   3.948   1.538   4.302 -1.1174 -1.9758 -2.7162
  417THF     H5 8413   4.105   1.626   4.334 -0.0259 -0.7806  2.2840
  417THF     H6 8414   4.139   1.539   3.973  0.7189  3.3898 -1.5373
  417THF     H7 8415   4.236   1.652   4.077 -1.2408  1.0592  2.5551
  417THF     C8 8416   4.230   1.448   4.150 -1.2760 -0.1235 -0.4219
  417THF     C9 8417   4.133   1.422   4.265  0.4546  0.2677  0.4437
  417THF    H10 8418   4.323   1.490   4.188 -1.8963  0.0097  1.0471
  417THF    H11 8419   4.262   1.369   4.083  0.6631  1.1247 -1.0285
  417THF    H12 8420   4.057   1.346   4.249  1.8504 -1.3153  0.9866
  417THF    H13 8421   4.193   1.394   4.351  0.7068 -0.6997 -0.0260
  418THF     O1 8422   0.126   0.069   3.215  0.3087  0.1877 -0.0686
  418THF     C2 8423   0.097   0.023   3.344  0.2274  0.5234 -0.2870
  418THF     C3 8424   0.253   0.134   3.220 -0.3853  1.1820  0.1753
  418THF     H4 8425   0.023  -0.057   3.346 -0.3514  1.0493 -0.3940
  418THF     H5 8426   0.054   0.105   3.401 -1.3239 -0.1080 -0.5113
  418THF     H6 8427   0.312   0.138   3.129 -1.7601 -0.2758 -0.8216
  418THF     H7 8428   0.230   0.237   3.249 -2.8872  0.8159 -0.2509
  418THF     C8 8429   0.335   0.058   3.331 -0.5217  0.1190  0.3281
  418THF     C9 8430   0.233  -0.028   3.397 -0.3888  0.4462 -0.1094
  418THF    H10 8431   0.390   0.131   3.391  2.0436  0.5932 -2.3580
  418THF    H11 8432   0.414  -0.006   3.290 -0.2636  0.3270  0.4979
  418THF    H12 8433   0.243  -0.132   3.367  0.8788  0.3964  0.4294
  418THF    H13 8434   0.236  -0.033   3.506 -0.4733  0.3517 -0.1121
  419THF     O1 8435   3.340   3.707   4.351 -0.2509  0.4712  0.0339
  419THF     C2 8436   3.429   3.785   4.431  0.3643 -0.1461  1.2058
  419THF     C3 8437   3.390   3.695   4.221 -0.1773  0.7428  0.3850
  419THF     H4 8438   3.492   3.713   4.482  1.7287 -1.7972 -2.4399
  419THF     H5 8439   3.376   3.843   4.506 -1.8057  1.0660 -1.0955
  419THF     H6 8440   3.397   3.594   4.179 -0.2308  0.2988  1.4315
  419THF     H7 8441   3.318   3.744   4.156  0.8975 -1.4737 -2.7279
  419THF     C8 8442   3.527   3.777   4.218 -0.1491 -0.7482 -0.2643
  419THF     C9 8443   3.515   3.873   4.334 -0.1330  0.6231  0.0651
  419THF    H10 8444   3.532   3.834   4.125 -0.1864 -0.0144  0.1744
  419THF    H11 8445   3.616   3.714   4.219  0.2564 -0.1779  1.0646
  419THF    H12 8446   3.604   3.890   4.394 -0.4183 -2.3764  1.5878
  419THF    H13 8447   3.460   3.964   4.310 -0.7696  0.9698  2.4862
  420THF     O1 8448   3.953   3.344   3.681  0.2584  0.2211 -0.4434
  420THF     C2 8449   4.042   3.272   3.770 -0.4819 -0.1920  0.2861
  420THF     C3 8450   3.871   3.433   3.760 -0.9762 -0.6116 -0.3830
  420THF     H4 8451   4.141   3.236   3.741  0.4731  0.0207  3.0371
  420THF     H5 8452   3.992   3.180   3.800  0.2764 -0.3150  1.1886
  420THF     H6 8453   3.872   3.529   3.707 -1.0503 -1.0277 -1.1492
  420THF     H7 8454   3.766   3.405   3.764 -1.0888 -0.4820 -1.8355
  420THF     C8 8455   3.933   3.439   3.898  0.2978  0.4244  0.2312
  420THF     C9 8456   4.062   3.355   3.890 -0.2075 -0.3548 -0.6678
  420THF    H10 8457   3.857   3.381   3.951  0.0738 -1.2825 -1.8214
  420THF    H11 8458   3.943   3.532   3.954 -0.6174  0.4289  0.4006
  420THF    H12 8459   4.143   3.423   3.863 -0.4177  0.6596  1.0975
  420THF    H13 8460   4.083   3.289   3.974  2.2033 -0.3696 -1.1951
  421THF     O1 8461   5.066   1.189   1.577  0.2381  0.3363  0.0439
  421THF     C2 8462   4.949   1.187   1.653  0.3970 -0.6470  0.2258
  421THF     C3 8463   5.138   1.305   1.599  0.0494 -0.1916 -0.1702
  421THF     H4 8464   4.977   1.155   1.753  0.8931 -0.2094  0.2352
  421THF     H5 8465   4.869   1.129   1.608  0.5208 -1.4876  1.0611
  421THF     H6 8466   5.236   1.289   1.645 -1.2744 -0.1508  2.8909
  421THF     H7 8467   5.158   1.357   1.504 -0.6216 -2.3717 -1.5664
  421THF     C8 8468   5.058   1.394   1.684  0.0478  0.5142 -0.1879
  421THF     C9 8469   4.912   1.334   1.658  0.2194 -0.0244  0.6569
  421THF    H10 8470   5.065   1.503   1.685 -0.8499  0.5758  0.1844
  421THF    H11 8471   5.078   1.366   1.787  2.7892 -1.7350 -1.2002
  421THF    H12 8472   4.836   1.366   1.729 -1.2971  0.9135 -1.2976
  421THF    H13 8473   4.870   1.350   1.558 -0.3851  1.9844  1.1808
  422THF     O1 8474   1.598   0.879   0.419 -0.3890  0.4557 -0.2723
  422THF     C2 8475   1.667   1.009   0.436 -0.1629  0.4297 -0.1772
  422THF     C3 8476   1.640   0.795   0.524 -0.0596 -0.4167  0.6098
  422THF     H4 8477   1.657   1.089   0.362 -0.8462 -0.0316 -0.5920
  422THF     H5 8478   1.774   0.993   0.423 -0.1579 -2.7311  2.3964
  422THF     H6 8479   1.582   0.703   0.535 -0.4382 -0.1351  1.0259
  422THF     H7 8480   1.744   0.766   0.510  0.1131  0.1768  0.6300
  422THF     C8 8481   1.624   0.892   0.644 -0.2874  0.2897  0.1083
  422THF     C9 8482   1.634   1.033   0.586  0.3106  0.0647  0.6057
  422THF    H10 8483   1.699   0.875   0.721 -0.1380 -0.5933 -0.2191
  422THF    H11 8484   1.528   0.892   0.695 -0.1785  0.1455  0.3149
  422THF    H12 8485   1.540   1.086   0.602 -1.3096 -2.1275 -1.0934
  422THF    H13 8486   1.709   1.097   0.632  1.5773 -0.8683 -0.0905
  423THF     O1 8487   1.666   3.877   5.288 -0.0600 -0.1115  1.1069
  423THF     C2 8488   1.554   3.910   5.372  0.2460 -0.2884  0.5780
  423THF     C3 8489   1.785   3.856   5.373  0.0629  0.5534  0.3483
  423THF     H4 8490   1.489   3.823   5.380  0.4992 -0.5502 -0.1600
  423THF     H5 8491   1.487   3.988   5.336 -1.2436 -0.4030  2.9236
  423THF     H6 8492   1.780   3.758   5.420  0.1045  0.0922 -0.5855
  423THF     H7 8493   1.877   3.868   5.317  0.9795 -0.9709  1.4580
  423THF     C8 8494   1.750   3.960   5.481  0.3847 -0.5667 -0.1761
  423THF     C9 8495   1.603   3.948   5.506 -0.5474  0.4650 -0.3734
  423THF    H10 8496   1.770   4.061   5.446 -0.0080 -0.3422  0.2346
  423THF    H11 8497   1.802   3.963   5.577  0.0231  1.4362 -0.0009
  423THF    H12 8498   1.590   3.862   5.572 -1.8603  1.1754  0.3372
  423THF    H13 8499   1.555   4.034   5.550 -1.5805 -0.5948  0.6472
  424THF     O1 8500   4.201   2.006   5.490  0.1091 -0.5126  0.1508
  424THF     C2 8501   4.298   1.911   5.512 -0.0171  0.6579 -0.0622
  424THF     C3 8502   4.113   2.006   5.596 -0.6115 -0.4540 -0.3784
  424THF     H4 8503   4.367   1.953   5.585 -0.7626  0.3077  0.8682
  424THF     H5 8504   4.362   1.880   5.429  1.5604  0.8681  1.0305
  424THF     H6 8505   4.126   2.085   5.670 -1.0489 -0.5495 -0.1985
  424THF     H7 8506   4.007   2.016   5.574 -1.1991 -1.7083  1.6423
  424THF     C8 8507   4.127   1.871   5.664  0.0329  0.1978 -0.9500
  424THF     C9 8508   4.222   1.798   5.578  0.0868  0.1139  0.1848
  424THF    H10 8509   4.039   1.807   5.677  1.1248 -1.3884 -1.0634
  424THF    H11 8510   4.172   1.883   5.763 -3.3170 -0.7343  0.8551
  424THF    H12 8511   4.295   1.732   5.625  2.8235  0.9203 -2.5747
  424THF    H13 8512   4.158   1.746   5.507  2.1194 -0.6159 -1.2255
  425THF     O1 8513   1.220   0.027   2.429  0.4098 -0.2122 -0.2735
  425THF     C2 8514   1.233   0.024   2.571  0.1680 -0.5789  0.6644
  425THF     C3 8515   1.347   0.003   2.379  0.1861  0.2245 -0.2747
  425THF     H4 8516   1.245  -0.080   2.602 -0.2748 -1.5574 -2.1813
  425THF     H5 8517   1.150   0.073   2.623  0.2690  0.7727 -0.3878
  425THF     H6 8518   1.327  -0.105   2.380 -1.8168  0.5547  0.6578
  425THF     H7 8519   1.360   0.022   2.272  1.7547  0.1481 -0.1131
  425THF     C8 8520   1.446   0.058   2.487  0.0958  0.5732 -0.4522
  425THF     C9 8521   1.365   0.098   2.600  0.0848 -0.3187 -0.0362
  425THF    H10 8522   1.526   0.130   2.468  1.0245  0.6450  2.9706
  425THF    H11 8523   1.492  -0.034   2.522 -1.8645 -1.1507 -2.1570
  425THF    H12 8524   1.416   0.087   2.695  0.0958  2.0304  0.2973
  425THF    H13 8525   1.341   0.203   2.584 -1.3901 -0.8670 -1.7398
  426THF     O1 8526   0.228   1.686   2.348 -0.0037  0.6434 -0.9257
  426THF     C2 8527   0.179   1.555   2.350 -0.1226  0.3903  0.3783
  426THF     C3 8528   0.321   1.702   2.456  0.4099 -0.0237  0.0739
  426THF     H4 8529   0.168   1.521   2.247 -0.6436 -0.1287  0.5969
  426THF     H5 8530   0.087   1.550   2.408  0.8565 -0.6131  1.9248
  426THF     H6 8531   0.393   1.781   2.430 -1.3604  1.5059 -0.3951
  426THF     H7 8532   0.270   1.735   2.546  1.2394 -0.5954  0.7666
  426THF     C8 8533   0.382   1.563   2.476  0.8169  0.1650  0.3133
  426THF     C9 8534   0.283   1.467   2.426  0.1380  0.6973  0.2406
  426THF    H10 8535   0.396   1.554   2.584 -1.7484  1.2618  0.8114
  426THF    H11 8536   0.474   1.563   2.417 -0.2459 -0.0989 -1.3949
  426THF    H12 8537   0.322   1.402   2.347 -1.4424 -0.6382  0.4937
  426THF    H13 8538   0.238   1.407   2.505 -0.7987  0.7077 -0.2665
  427THF     O1 8539   0.263   2.275   4.093  0.1469 -0.7915 -0.2497
  427THF     C2 8540   0.331   2.292   3.972  0.0096 -0.1198 -0.2653
  427THF     C3 8541   0.186   2.396   4.122 -0.4744 -0.8280 -0.4946
  427THF     H4 8542   0.261   2.266   3.892 -0.4591 -1.9844  0.7015
  427THF     H5 8543   0.417   2.227   3.955 -0.4212 -1.2890  1.7717
  427THF     H6 8544   0.091   2.394   4.070 -0.3608 -1.9090 -0.6703
  427THF     H7 8545   0.186   2.408   4.231  1.3783  0.5356 -0.5813
  427THF     C8 8546   0.287   2.502   4.083  0.7477  0.0060 -0.0487
  427THF     C9 8547   0.373   2.439   3.972 -0.5681 -1.5254 -0.0168
  427THF    H10 8548   0.359   2.523   4.161  0.1926 -1.0480  0.7896
  427THF    H11 8549   0.233   2.592   4.055 -0.2122 -0.2720  0.8314
  427THF    H12 8550   0.359   2.481   3.873 -3.7090 -0.1943  0.8756
  427THF    H13 8551   0.482   2.448   3.974 -0.6771  0.1672  0.7297
  428THF     O1 8552   0.394   1.019   2.324  0.1277  0.1502  0.2907
  428THF     C2 8553   0.259   1.045   2.317  0.1763 -0.3636 -0.0674
  428THF     C3 8554   0.459   1.130   2.252 -0.4974  0.0442 -0.4658
  428THF     H4 8555   0.219   1.115   2.391  1.0950 -0.4090  0.4915
  428THF     H5 8556   0.204   0.951   2.321  1.1838 -1.1364 -2.6678
  428THF     H6 8557   0.462   1.220   2.314 -1.3917 -0.6752  0.6503
  428THF     H7 8558   0.564   1.107   2.233 -0.6693 -0.7662 -0.4417
  428THF     C8 8559   0.379   1.148   2.122  0.3327 -0.1874  0.1352
  428THF     C9 8560   0.241   1.096   2.165 -0.2877  0.1137 -0.4271
  428THF    H10 8561   0.408   1.086   2.037  2.0955 -0.7360  1.0967
  428THF    H11 8562   0.381   1.253   2.093  0.6670 -0.1052  0.4375
  428THF    H12 8563   0.177   1.184   2.154  1.0005  1.0922 -0.3804
  428THF    H13 8564   0.204   1.022   2.093  2.4519 -0.0154 -1.8425
  429THF     O1 8565   0.099   0.184   1.024 -0.7065  0.0242  0.1060
  429THF     C2 8566   0.113   0.084   1.130  0.5093 -0.1201  0.0216
  429THF     C3 8567  -0.029   0.245   1.043  0.0551  0.8449 -0.0712
  429THF     H4 8568   0.215   0.063   1.160  0.8605  0.6248 -0.6110
  429THF     H5 8569   0.072  -0.008   1.089 -0.1208  0.6423 -1.1243
  429THF     H6 8570  -0.022   0.343   0.998  0.4462 -0.2018 -2.4064
  429THF     H7 8571  -0.101   0.185   0.988  0.0023  0.4366  0.4238
  429THF     C8 8572  -0.058   0.246   1.194 -0.2229  0.7635 -0.1178
  429THF     C9 8573   0.020   0.126   1.242  0.1057  0.5965  0.0867
  429THF    H10 8574  -0.165   0.246   1.216  0.1252  0.4608  1.6966
  429THF    H11 8575  -0.018   0.338   1.237  2.1763 -1.5511  3.0304
  429THF    H12 8576   0.084   0.148   1.328 -0.7820 -1.4617  1.3523
  429THF    H13 8577  -0.037   0.038   1.273  3.3383 -2.2049 -1.3170
  430THF     O1 8578   4.983   1.182   4.413  0.6362  0.2617  0.3206
  430THF     C2 8579   5.077   1.096   4.480  0.1847 -0.1085  0.2873
  430THF     C3 8580   5.057   1.265   4.321 -0.2321 -0.1230 -0.6209
  430THF     H4 8581   5.073   0.998   4.434  1.6723  0.2750 -0.7302
  430THF     H5 8582   5.066   1.073   4.586  0.1638 -0.9986  0.0947
  430THF     H6 8583   5.003   1.279   4.227  0.6626  0.1375 -1.1090
  430THF     H7 8584   5.068   1.367   4.357  0.1076 -0.6079  0.7151
  430THF     C8 8585   5.199   1.220   4.310  0.2029 -0.1619  0.5276
  430THF     C9 8586   5.213   1.156   4.447  0.0550 -0.8221 -0.0530
  430THF    H10 8587   5.261   1.305   4.282  0.2565 -0.0236  1.0459
  430THF    H11 8588   5.208   1.154   4.224 -1.8937 -1.1089  0.9760
  430THF    H12 8589   5.287   1.076   4.444  1.9020  0.8290 -0.1005
  430THF    H13 8590   5.245   1.235   4.515  1.1701 -0.2978 -1.1609
  431THF     O1 8591   4.765   3.547   3.337 -0.3747  0.6099 -0.1710
  431THF     C2 8592   4.815   3.517   3.468  0.5605  0.6388  0.6266
  431THF     C3 8593   4.839   3.656   3.280 -0.0998 -0.1936  0.0477
  431THF     H4 8594   4.912   3.467   3.467 -0.3329 -1.1937 -0.0129
  431THF     H5 8595   4.746   3.468   3.536  1.3548  0.8291  1.5935
  431THF     H6 8596   4.901   3.629   3.194  1.2504 -1.2778  1.2888
  431THF     H7 8597   4.757   3.716   3.242 -1.2314 -0.4207  2.0311
  431THF     C8 8598   4.912   3.725   3.402 -0.8393 -0.3850 -0.2593
  431THF     C9 8599   4.827   3.662   3.512 -0.0210 -0.3019 -0.4848
  431THF    H10 8600   4.911   3.834   3.408  2.0697 -0.0927 -2.8849
  431THF    H11 8601   5.015   3.694   3.414 -1.2347 -1.1741  1.3105
  431THF    H12 8602   4.870   3.663   3.612 -2.1018 -0.2621  0.4744
  431THF    H13 8603   4.731   3.714   3.510  1.3027  2.2980 -0.8031
  432THF     O1 8604   4.320   5.186   0.566  0.3332  0.5148  0.2116
  432THF     C2 8605   4.297   5.200   0.425  0.0282 -0.5874 -0.9840
  432THF     C3 8606   4.447   5.241   0.605 -0.8180  0.0482  0.4159
  432THF     H4 8607   4.229   5.286   0.419 -0.5170 -0.8650  0.7543
  432THF     H5 8608   4.240   5.117   0.384 -0.6045 -0.4724 -0.3709
  432THF     H6 8609   4.421   5.346   0.618 -1.6387  0.0799 -1.2557
  432THF     H7 8610   4.489   5.206   0.700 -0.2713 -1.0515 -0.2152
  432THF     C8 8611   4.541   5.204   0.483 -0.0881  0.1321  0.2630
  432THF     C9 8612   4.439   5.210   0.364  0.1954 -0.1968 -0.1786
  432THF    H10 8613   4.578   5.107   0.515  0.4396  0.1370 -0.3197
  432THF    H11 8614   4.627   5.269   0.472  0.4145 -0.7123 -0.9334
  432THF    H12 8615   4.439   5.305   0.311 -0.4389  2.0381  3.5224
  432THF    H13 8616   4.452   5.126   0.295 -1.4818 -0.3517 -0.3394
  433THF     O1 8617   2.086   0.185   3.127  0.0846 -0.1082 -0.1489
  433THF     C2 8618   2.210   0.156   3.191  0.5265  0.5295 -0.3462
  433THF     C3 8619   2.003   0.243   3.224  0.1735 -0.4728  0.2248
  433THF     H4 8620   2.254   0.253   3.215 -0.1636  0.5039  1.1104
  433THF     H5 8621   2.271   0.097   3.122 -0.1767  0.3543 -0.8377
  433THF     H6 8622   2.037   0.342   3.252  0.2840 -0.7055  0.9546
  433THF     H7 8623   1.900   0.253   3.190  0.8175 -0.8836 -1.9657
  433THF     C8 8624   2.033   0.151   3.346  0.4175  0.8204 -0.0374
  433THF     C9 8625   2.162   0.078   3.312  0.2112  0.2093  0.2899
  433THF    H10 8626   1.958   0.073   3.356  0.0802  1.2691  1.2343
  433THF    H11 8627   2.031   0.212   3.437 -0.9142  2.2753 -0.9892
  433THF    H12 8628   2.233   0.068   3.395  0.0863  0.4694  0.4285
  433THF    H13 8629   2.129  -0.024   3.293 -2.3000  0.9584  0.2874
  434THF     O1 8630   0.052   1.118   2.882 -0.0527  0.4408 -0.2645
  434THF     C2 8631   0.084   1.128   2.743 -0.5403 -1.0640 -0.8350
  434THF     C3 8632  -0.037   1.006   2.895  0.2403 -0.3538 -0.1910
  434THF     H4 8633   0.177   1.178   2.716  0.3191 -1.5274  1.0643
  434THF     H5 8634   0.005   1.178   2.687  0.0634 -0.2350 -0.9599
  434THF     H6 8635  -0.057   0.977   2.998  0.7158 -1.7228 -0.4639
  434THF     H7 8636  -0.130   1.033   2.845 -0.1062 -0.5119  0.3540
  434THF     C8 8637   0.039   0.903   2.818  0.2941  0.2188  0.4469
  434THF     C9 8638   0.080   0.989   2.696  0.5373  0.0674 -0.5109
  434THF    H10 8639  -0.027   0.820   2.793 -0.5349  1.0626 -0.2758
  434THF    H11 8640   0.125   0.878   2.879 -0.8936 -2.0051  1.3067
  434THF    H12 8641   0.171   0.956   2.646 -0.0164  1.0868 -2.3044
  434THF    H13 8642  -0.001   0.975   2.624 -0.4229  2.4301  0.0072
  435THF     O1 8643   3.505   5.417   4.076 -0.0558  0.2399  0.1429
  435THF     C2 8644   3.527   5.544   4.145  0.0640  0.0434  0.6998
  435THF     C3 8645   3.428   5.440   3.959 -0.4460 -0.5167 -0.4102
  435THF     H4 8646   3.617   5.549   4.205  0.3935 -0.5221  0.2705
  435THF     H5 8647   3.441   5.581   4.202 -0.1879  0.4633  0.0567
  435THF     H6 8648   3.452   5.363   3.885 -1.2738  1.1266 -2.4777
  435THF     H7 8649   3.322   5.435   3.984 -0.8838 -1.5682 -2.2715
  435THF     C8 8650   3.469   5.575   3.910  0.5431 -0.5779 -0.4151
  435THF     C9 8651   3.542   5.641   4.025  0.0786  0.4635 -0.2329
  435THF    H10 8652   3.378   5.625   3.876  0.7718 -0.6582 -1.1852
  435THF    H11 8653   3.547   5.566   3.834  2.5566  0.2162  1.4812
  435THF    H12 8654   3.648   5.633   4.000  0.5256  0.3505  1.5896
  435THF    H13 8655   3.516   5.745   4.046  1.8619  1.2150 -1.4808
  436THF     O1 8656   3.997   2.944   1.349 -0.2798 -0.3239  0.0841
  436THF     C2 8657   4.041   2.921   1.207 -0.5029  0.4777 -0.1100
  436THF     C3 8658   4.020   3.080   1.366  0.0863 -0.5994  0.2495
  436THF     H4 8659   3.978   2.973   1.135  0.7372  1.4530 -0.5281
  436THF     H5 8660   4.054   2.818   1.174 -1.0472  1.2571 -3.0753
  436THF     H6 8661   3.943   3.147   1.328 -1.4239 -1.0436  2.3125
  436THF     H7 8662   4.009   3.105   1.472 -0.2347 -0.1007  0.1044
  436THF     C8 8663   4.164   3.093   1.310 -0.0628  0.2681  0.0695
  436THF     C9 8664   4.180   2.980   1.207  0.5235  0.2095 -0.2030
  436THF    H10 8665   4.240   3.093   1.388  0.6276 -3.6198 -0.4090
  436THF    H11 8666   4.163   3.187   1.256 -0.0540 -0.1239 -0.6175
  436THF    H12 8667   4.220   3.015   1.112 -1.5409 -0.0476 -1.2235
  436THF    H13 8668   4.249   2.905   1.246 -1.0626 -0.4971  1.4079
  437THF     O1 8669   3.977   4.892   0.840 -0.4936  0.0201 -1.0153
  437THF     C2 8670   3.957   4.813   0.956  0.4715  0.4664  0.2750
  437THF     C3 8671   3.939   5.021   0.877  0.2302  0.4571  0.0405
  437THF     H4 8672   4.008   4.717   0.944  0.7377  0.7945 -1.4702
  437THF     H5 8673   3.855   4.775   0.958 -0.0037  1.0974 -3.5988
  437THF     H6 8674   3.963   5.095   0.802 -1.2163  0.0266 -0.8869
  437THF     H7 8675   3.831   5.022   0.893  0.4495  1.5413  1.6894
  437THF     C8 8676   4.006   5.033   1.011  0.3289 -0.4313 -0.5219
  437THF     C9 8677   3.997   4.892   1.072  0.3917 -0.5935  0.0328
  437THF    H10 8678   3.972   5.117   1.071 -0.0285 -1.3057  0.5302
  437THF    H11 8679   4.113   5.051   0.994 -0.0329  2.0385 -0.5813
  437THF    H12 8680   4.102   4.868   1.091  0.3431 -0.6766  0.1938
  437THF    H13 8681   3.923   4.878   1.150 -2.7391  0.3332 -2.5758
  438THF     O1 8682   4.776   1.940   4.134 -0.2274 -0.8200 -0.4222
  438THF     C2 8683   4.685   1.976   4.024  0.3600 -0.3482  0.3968
  438THF     C3 8684   4.910   1.965   4.087  0.1310  0.0738 -1.0572
  438THF     H4 8685   4.661   2.081   4.032 -0.1944 -0.5840  2.0052
  438THF     H5 8686   4.590   1.923   4.034 -1.0054  1.9291  0.0149
  438THF     H6 8687   4.948   2.066   4.102  0.3370  0.0007 -1.0829
  438THF     H7 8688   4.974   1.894   4.140 -0.7172  0.5781  0.6904
  438THF     C8 8689   4.901   1.919   3.940  0.3372 -0.3055 -0.2819
  438THF     C9 8690   4.758   1.938   3.894  0.3562  0.2797 -0.7252
  438THF    H10 8691   4.923   1.813   3.938  0.6026 -0.3176  1.3355
  438THF    H11 8692   4.971   1.966   3.872  1.5087 -1.8068 -0.1492
  438THF    H12 8693   4.752   2.022   3.825  0.8921 -0.2072 -1.3861
  438THF    H13 8694   4.717   1.849   3.846 -1.1547  0.1573  0.6793
  439THF     O1 8695   3.277   0.790   5.211 -0.0289 -0.2683 -0.5587
  439THF     C2 8696   3.172   0.819   5.124  0.3305 -0.7451  0.5851
  439THF     C3 8697   3.267   0.655   5.258  0.2361  0.2717 -0.0635
  439THF     H4 8698   3.178   0.765   5.029 -2.6527 -0.1842 -0.0088
  439THF     H5 8699   3.176   0.927   5.109  1.1871 -0.9726 -1.1156
  439THF     H6 8700   3.298   0.575   5.191  0.6972 -1.6954  2.3582
  439THF     H7 8701   3.316   0.639   5.353  1.7190  1.0930 -0.6608
  439THF     C8 8702   3.118   0.641   5.274 -0.1849  0.5886  0.4540
  439THF     C9 8703   3.060   0.762   5.205 -0.2930  0.4878  0.1418
  439THF    H10 8704   3.098   0.644   5.382  0.2466  2.6345  0.5254
  439THF    H11 8705   3.091   0.551   5.220 -2.5228  2.0728 -1.0264
  439THF    H12 8706   2.969   0.737   5.151  1.8159 -1.5728 -2.7780
  439THF    H13 8707   3.028   0.829   5.285 -0.4577  2.1615 -1.2452
  440THF     O1 8708   1.102   1.528   5.402  0.0636  0.4369 -0.4038
  440THF     C2 8709   1.162   1.652   5.371  0.2926 -0.5290 -0.3887
  440THF     C3 8710   0.990   1.554   5.480 -0.3175  0.9125  0.2129
  440THF     H4 8711   1.193   1.643   5.267  1.0479  3.7578 -0.7001
  440THF     H5 8712   1.256   1.674   5.422  0.7929  1.2911 -1.9743
  440THF     H6 8713   0.924   1.468   5.468  0.7377  0.3002 -1.4792
  440THF     H7 8714   1.023   1.564   5.583  0.7969  0.1318 -0.0485
  440THF     C8 8715   0.932   1.680   5.421 -1.5120 -0.5291  0.4619
  440THF     C9 8716   1.056   1.761   5.405  0.0649  1.2549  0.0111
  440THF    H10 8717   0.854   1.724   5.483 -0.5579  0.9920  0.6304
  440THF    H11 8718   0.876   1.658   5.331 -1.3937  0.8943  0.0103
  440THF    H12 8719   1.055   1.838   5.328  0.4010  1.7420  0.4875
  440THF    H13 8720   1.076   1.794   5.507 -0.4009  1.8985 -0.1051
  441THF     O1 8721   1.437   1.506   3.491  0.7457  0.2619 -0.1855
  441THF     C2 8722   1.557   1.585   3.521 -0.1051 -0.0626 -0.7196
  441THF     C3 8723   1.386   1.453   3.615 -0.5356  0.2565 -0.9500
  441THF     H4 8724   1.566   1.682   3.471  0.2589  1.3085  1.8304
  441THF     H5 8725   1.646   1.528   3.496  0.1103 -0.6983  1.3225
  441THF     H6 8726   1.287   1.496   3.630 -0.8249 -0.5070 -0.6287
  441THF     H7 8727   1.374   1.345   3.627  0.1276  0.3379  0.6711
  441THF     C8 8728   1.477   1.501   3.730  0.2711 -0.1935 -0.1427
  441THF     C9 8729   1.548   1.619   3.668 -0.2358 -0.3292  0.1169
  441THF    H10 8730   1.555   1.431   3.762  0.7887  0.1832 -0.5567
  441THF    H11 8731   1.422   1.520   3.822  1.9528 -0.6986  1.0155
  441THF    H12 8732   1.501   1.712   3.699  0.3893 -0.5808  1.9662
  441THF    H13 8733   1.650   1.633   3.703 -0.0390 -0.0745 -0.5458
  442THF     O1 8734   4.786   0.857   2.020  0.1764  0.0648  0.4338
  442THF     C2 8735   4.920   0.890   1.988  0.0583  0.0376 -0.6034
  442THF     C3 8736   4.764   0.886   2.159 -0.1014  0.3362  0.2914
  442THF     H4 8737   4.931   0.881   1.880  1.1759 -0.6530 -0.4513
  442THF     H5 8738   4.980   0.811   2.033 -1.1349 -0.5704 -0.0300
  442THF     H6 8739   4.663   0.902   2.197 -0.4657 -0.4162 -0.3322
  442THF     H7 8740   4.809   0.809   2.222 -0.5498 -1.1350 -1.1168
  442THF     C8 8741   4.835   1.023   2.169 -0.0027  0.8200  0.3411
  442THF     C9 8742   4.941   1.025   2.052  0.1469  0.5456 -0.0171
  442THF    H10 8743   4.887   1.023   2.265  2.0199  2.0831 -0.6866
  442THF    H11 8744   4.767   1.107   2.162  0.6079  1.2378 -1.0807
  442THF    H12 8745   4.908   1.104   1.985 -0.1570  1.0158  0.6822
  442THF    H13 8746   5.038   1.056   2.092 -1.1953  1.3330  2.9299
  443THF     O1 8747   1.700   0.069   1.966 -0.4265 -0.0529  0.5560
  443THF     C2 8748   1.659  -0.013   2.073 -0.2374 -0.2189 -1.2021
  443THF     C3 8749   1.844   0.104   1.981  0.0618 -0.4033  0.2364
  443THF     H4 8750   1.693  -0.112   2.041  0.6102 -0.9580  1.7482
  443THF     H5 8751   1.550  -0.007   2.072 -0.3067 -0.7705  0.5578
  443THF     H6 8752   1.880   0.015   1.930 -3.3203 -1.3165 -0.8076
  443THF     H7 8753   1.867   0.194   1.924  0.9541 -0.6838  0.1383
  443THF     C8 8754   1.858   0.104   2.135  0.2650 -0.6830  0.0935
  443THF     C9 8755   1.732   0.044   2.197  0.0897 -0.1050  0.1464
  443THF    H10 8756   1.875   0.209   2.162 -0.8689 -0.8914  1.7979
  443THF    H11 8757   1.954   0.055   2.150  1.1744  0.0673 -2.6351
  443THF    H12 8758   1.757  -0.022   2.280  1.5451 -0.7058 -0.7192
  443THF    H13 8759   1.676   0.130   2.233  0.3260  0.1438 -0.0713
  444THF     O1 8760   4.728   0.110   1.316  0.4549  0.4678  0.2622
  444THF     C2 8761   4.743   0.250   1.303 -0.4533  0.2770  0.0150
  444THF     C3 8762   4.668   0.082   1.445 -0.3291 -0.2905  0.7215
  444THF     H4 8763   4.710   0.279   1.203 -0.6131 -1.1608 -0.3741
  444THF     H5 8764   4.846   0.284   1.316 -0.3913 -0.4814  1.8425
  444THF     H6 8765   4.611  -0.010   1.460 -2.0079  0.7362  0.8513
  444THF     H7 8766   4.744   0.098   1.521 -1.5518  1.0425  1.7032
  444THF     C8 8767   4.570   0.197   1.461 -0.1733  0.1129  0.0436
  444THF     C9 8768   4.651   0.312   1.405  0.0769 -0.1994 -0.2499
  444THF    H10 8769   4.533   0.217   1.561 -0.8582 -0.4415 -0.0854
  444THF    H11 8770   4.483   0.188   1.396 -0.2143  2.6604 -0.3628
  444THF    H12 8771   4.597   0.403   1.377  1.4505  0.0271 -2.3483
  444THF    H13 8772   4.707   0.345   1.493 -1.9757  2.8016  0.0879
  445THF     O1 8773   1.248   3.310   2.763  0.2919 -0.7872  0.0935
  445THF     C2 8774   1.368   3.254   2.805 -0.4764  0.4464  0.1533
  445THF     C3 8775   1.231   3.272   2.628  0.4181  0.0020  0.0184
  445THF     H4 8776   1.342   3.182   2.883  0.1894 -1.2458 -1.1122
  445THF     H5 8777   1.442   3.327   2.838  0.3278 -0.7436  1.0689
  445THF     H6 8778   1.132   3.282   2.582  0.3645  0.9472  0.3183
  445THF     H7 8779   1.283   3.345   2.568 -1.2226  2.4472  1.4061
  445THF     C8 8780   1.292   3.137   2.606  0.1082 -0.4281  0.7105
  445THF     C9 8781   1.415   3.159   2.691  0.2189  0.0151  0.8360
  445THF    H10 8782   1.303   3.118   2.499 -0.5558  1.9410  0.1511
  445THF    H11 8783   1.229   3.064   2.657 -0.1181 -0.2288  0.7176
  445THF    H12 8784   1.455   3.066   2.731  0.7553  0.6178  1.7441
  445THF    H13 8785   1.500   3.201   2.637  0.1107  0.7066  1.1993
  446THF     O1 8786   1.206   1.747   0.715  0.6379  0.1989  0.2252
  446THF     C2 8787   1.310   1.663   0.740 -0.5362 -0.1301  0.6193
  446THF     C3 8788   1.107   1.714   0.803  0.7466 -0.2971  0.5230
  446THF     H4 8789   1.358   1.693   0.833  0.5673 -2.9040  1.0501
  446THF     H5 8790   1.378   1.671   0.655 -2.0379  2.3326 -0.4683
  446THF     H6 8791   1.135   1.738   0.906 -1.3417 -1.1553  1.3416
  446THF     H7 8792   1.014   1.763   0.774  1.1393  0.0270 -0.2426
  446THF     C8 8793   1.103   1.561   0.800 -0.5421  0.0293 -0.1229
  446THF     C9 8794   1.251   1.528   0.754  0.9987 -0.1217  0.3061
  446THF    H10 8795   1.037   1.531   0.718  0.5027  1.5076 -1.5726
  446THF    H11 8796   1.079   1.517   0.897  1.0205 -2.1088 -0.6355
  446THF    H12 8797   1.312   1.466   0.820 -0.6027 -2.3394 -0.2192
  446THF    H13 8798   1.246   1.480   0.656  1.3189  0.2380  0.1080
  447THF     O1 8799   3.845   3.134   4.472 -0.6079 -0.2119  0.0071
  447THF     C2 8800   3.961   3.093   4.546  1.0907 -0.3273 -0.1565
  447THF     C3 8801   3.896   3.222   4.376  0.3742  0.8512  0.0862
  447THF     H4 8802   3.936   2.994   4.585  2.0517 -0.1461  0.9595
  447THF     H5 8803   3.985   3.166   4.623  1.9955  0.4384 -1.1299
  447THF     H6 8804   3.821   3.251   4.301 -1.3205 -0.8422  1.0346
  447THF     H7 8805   3.925   3.316   4.422  3.9683 -0.8854  1.7290
  447THF     C8 8806   4.008   3.153   4.307 -1.1046 -0.8290 -0.5191
  447THF     C9 8807   4.063   3.084   4.433  0.5869 -0.4262  0.1236
  447THF    H10 8808   4.077   3.211   4.246  1.7889 -2.5092  0.9593
  447THF    H11 8809   3.960   3.072   4.251  1.4827 -1.1938 -2.4213
  447THF    H12 8810   4.086   2.981   4.406 -4.3650 -1.2303 -2.1193
  447THF    H13 8811   4.156   3.135   4.458 -0.1749  0.3483  1.4732
  448THF     O1 8812   3.100   4.748   3.433 -0.2735 -0.3172 -0.6135
  448THF     C2 8813   3.125   4.641   3.345  0.0243 -0.5736  0.1737
  448THF     C3 8814   3.180   4.852   3.379 -0.0330  0.1168  0.4622
  448THF     H4 8815   3.049   4.564   3.357 -0.5777  0.0986  0.7539
  448THF     H5 8816   3.221   4.596   3.371 -0.0351 -1.5033 -1.1356
  448THF     H6 8817   3.139   4.947   3.413 -2.2647 -0.0182 -1.6151
  448THF     H7 8818   3.283   4.846   3.414 -0.0064 -0.0557  0.3552
  448THF     C8 8819   3.168   4.837   3.225 -0.1802  0.0700 -0.0248
  448THF     C9 8820   3.123   4.689   3.202 -0.5412  0.1052 -0.7642
  448THF    H10 8821   3.264   4.845   3.173 -1.0301  0.7994 -1.5542
  448THF    H11 8822   3.086   4.904   3.203  1.1552  2.1410  0.9909
  448THF    H12 8823   3.023   4.674   3.162 -0.4481  0.5242 -1.1699
  448THF    H13 8824   3.187   4.632   3.135 -1.6585 -0.0357 -1.7564
  449THF     O1 8825   1.880   1.675   3.041  0.5183  0.0775 -0.0507
  449THF     C2 8826   1.832   1.594   3.145  0.1741  0.0680 -0.1841
  449THF     C3 8827   1.859   1.813   3.081 -0.6152  0.2360  0.4878
  449THF     H4 8828   1.868   1.491   3.139  1.0257  0.3782 -0.5477
  449THF     H5 8829   1.724   1.578   3.145  0.0348  0.9603 -0.2235
  449THF     H6 8830   1.920   1.883   3.025 -0.8968  0.5497  0.5685
  449THF     H7 8831   1.752   1.834   3.070 -0.1516  1.8698 -1.1585
  449THF     C8 8832   1.908   1.811   3.226  0.0895 -0.0898 -0.5626
  449THF     C9 8833   1.882   1.666   3.271 -0.0222  0.5892  0.3606
  449THF    H10 8834   1.854   1.881   3.291  1.0446 -2.2623  2.8591
  449THF    H11 8835   2.015   1.828   3.234 -0.2541  1.8330  0.8909
  449THF    H12 8836   1.975   1.626   3.311  0.8695  3.0391  0.9269
  449THF    H13 8837   1.815   1.667   3.357 -0.4414  0.1777  0.0445
  450THF     O1 8838   4.371   3.258   3.429 -0.3220 -0.7588  0.2632
  450THF     C2 8839   4.491   3.323   3.471 -0.6337 -0.9188  0.2845
  450THF     C3 8840   4.255   3.352   3.426  0.2502 -0.0723 -0.1843
  450THF     H4 8841   4.577   3.285   3.416 -1.3457 -1.4349 -0.4961
  450THF     H5 8842   4.511   3.304   3.577  0.6629 -1.4190 -0.0369
  450THF     H6 8843   4.184   3.342   3.344 -1.7614  0.6009  1.3801
  450THF     H7 8844   4.182   3.344   3.507  0.8018 -1.7840  0.2003
  450THF     C8 8845   4.316   3.492   3.433 -0.1732  0.0148  0.4321
  450THF     C9 8846   4.469   3.473   3.429 -0.1529 -0.4642  0.2517
  450THF    H10 8847   4.298   3.544   3.527 -0.1968  0.3389  0.2485
  450THF    H11 8848   4.282   3.562   3.357  2.4059  0.6997 -0.2168
  450THF    H12 8849   4.491   3.491   3.324 -0.1223  3.5198  0.7721
  450THF    H13 8850   4.526   3.549   3.483  0.1526  1.3794 -2.4761
  451THF     O1 8851   0.908   5.043   0.420  0.6277 -0.5339 -0.4425
  451THF     C2 8852   1.038   5.070   0.452 -0.5730 -0.2408 -0.0267
  451THF     C3 8853   0.896   4.920   0.354  0.1532  0.0795  0.1478
  451THF     H4 8854   1.051   5.100   0.556  0.0617  0.9670 -0.4337
  451THF     H5 8855   1.078   5.140   0.379 -1.0362  0.0509 -0.0039
  451THF     H6 8856   0.844   4.851   0.421 -0.3910 -2.4344 -2.6244
  451THF     H7 8857   0.839   4.922   0.261  0.6817 -0.1086 -0.1839
  451THF     C8 8858   1.036   4.853   0.336  0.6992  0.0885  0.0635
  451THF     C9 8859   1.106   4.932   0.445 -0.3947 -0.5444  0.2596
  451THF    H10 8860   1.087   4.881   0.244  0.9779 -0.2188  0.1241
  451THF    H11 8861   1.035   4.745   0.352 -0.1152  0.0074 -0.4443
  451THF    H12 8862   1.075   4.880   0.536  2.6313  0.1787  1.8590
  451THF    H13 8863   1.215   4.939   0.439 -0.4310  0.8206  0.7404
  452THF     O1 8864   2.813   0.431   2.723  0.9600 -0.3965  0.5213
  452THF     C2 8865   2.790   0.393   2.588 -0.1091 -0.3733  0.8422
  452THF     C3 8866   2.788   0.568   2.738 -0.0289  0.1324 -0.3284
  452THF     H4 8867   2.684   0.400   2.561 -0.0410 -0.8769  0.4229
  452THF     H5 8868   2.821   0.290   2.568  1.8178  0.2606  0.3407
  452THF     H6 8869   2.681   0.584   2.752  0.3415  1.5381  1.0763
  452THF     H7 8870   2.836   0.613   2.825  0.4362  0.1911 -0.6111
  452THF     C8 8871   2.834   0.627   2.607 -0.6831 -0.7019  0.6829
  452THF     C9 8872   2.864   0.510   2.512 -0.2677  0.4713  0.3380
  452THF    H10 8873   2.920   0.689   2.631  0.8245 -2.4292 -0.0321
  452THF    H11 8874   2.753   0.688   2.566 -1.8910 -1.8334  1.3051
  452THF    H12 8875   2.818   0.507   2.413 -1.8560  0.6433  1.0510
  452THF    H13 8876   2.972   0.494   2.506 -0.0683  2.1572 -2.2086
  453THF     O1 8877   5.310   4.208   4.495 -0.6949  0.6592  0.7210
  453THF     C2 8878   5.433   4.146   4.439  0.1824 -0.2882  0.1576
  453THF     C3 8879   5.293   4.156   4.626  0.7359  0.1496 -0.2724
  453THF     H4 8880   5.460   4.213   4.357 -1.7644 -0.3061 -0.5622
  453THF     H5 8881   5.414   4.056   4.380 -3.6718  1.7005 -2.0586
  453THF     H6 8882   5.219   4.217   4.677  2.3293  1.4298  0.6102
  453THF     H7 8883   5.267   4.051   4.636  0.3903  0.3970  1.9496
  453THF     C8 8884   5.445   4.170   4.678  0.5325  0.3696  0.1882
  453THF     C9 8885   5.532   4.140   4.554  0.6508  0.1593  0.2773
  453THF    H10 8886   5.454   4.089   4.751 -2.0725 -1.6755 -1.5648
  453THF    H11 8887   5.476   4.272   4.701 -0.1921  1.0193 -1.5072
  453THF    H12 8888   5.609   4.213   4.528  1.6268 -1.7593 -2.7019
  453THF    H13 8889   5.581   4.043   4.563  0.1350 -0.2590 -1.2739
  454THF     O1 8890   1.417   2.896   4.811 -0.1436  0.2731  0.0527
  454THF     C2 8891   1.310   2.924   4.896 -0.0094 -0.6447  0.0327
  454THF     C3 8892   1.368   2.888   4.676  0.2690 -0.0700 -0.0842
  454THF     H4 8893   1.355   2.966   4.986  0.9004 -0.2895 -0.5707
  454THF     H5 8894   1.259   2.833   4.928  0.5532 -1.3429 -0.9802
  454THF     H6 8895   1.444   2.891   4.597 -0.7786 -0.9142 -1.1554
  454THF     H7 8896   1.306   2.802   4.652  1.0382 -0.0580 -2.4532
  454THF     C8 8897   1.291   3.015   4.667  0.1707 -0.5804 -0.4434
  454THF     C9 8898   1.238   3.028   4.813  0.9782 -0.1551  0.2786
  454THF    H10 8899   1.225   3.015   4.581  1.0169 -0.8008 -1.1019
  454THF    H11 8900   1.359   3.100   4.656 -2.3587  1.5742 -0.5702
  454THF    H12 8901   1.233   3.132   4.845 -1.3244  0.3217 -1.3633
  454THF    H13 8902   1.131   3.005   4.819  0.5155  1.7714 -0.1197
  455THF     O1 8903   3.560   2.580   4.555 -0.0905 -0.7109 -0.0905
  455THF     C2 8904   3.526   2.660   4.670  0.3939 -0.0416  0.2125
  455THF     C3 8905   3.543   2.445   4.592 -0.1308  0.4064 -0.1937
  455THF     H4 8906   3.421   2.646   4.694  0.7255  0.0479  1.8679
  455THF     H5 8907   3.562   2.762   4.656  0.6103 -0.0803  0.4631
  455THF     H6 8908   3.437   2.422   4.598 -0.3507  1.5563  0.8747
  455THF     H7 8909   3.597   2.372   4.532  2.4597  0.8199  1.4537
  455THF     C8 8910   3.610   2.440   4.723 -0.1783 -0.5024 -0.3150
  455THF     C9 8911   3.611   2.587   4.767  0.3777  0.2399  0.0740
  455THF    H10 8912   3.714   2.406   4.717  0.1189  0.0326  1.2703
  455THF    H11 8913   3.560   2.370   4.790 -1.5076 -0.7022 -1.4622
  455THF    H12 8914   3.574   2.591   4.869  2.6380  1.1717  0.9061
  455THF    H13 8915   3.709   2.635   4.760  1.6535 -2.2278 -0.1225
  456THF     O1 8916   2.216   2.163   0.068  0.0796 -0.4541 -0.1797
  456THF     C2 8917   2.265   2.097  -0.047  0.1417 -0.0856  0.3164
  456THF     C3 8918   2.192   2.068   0.171 -0.0249  0.3342 -0.3300
  456THF     H4 8919   2.302   2.159  -0.129  0.8947  0.0105  0.7146
  456THF     H5 8920   2.189   2.040  -0.100  1.1757  0.1427 -1.5176
  456THF     H6 8921   2.180   2.105   0.273 -0.6287  0.7141 -0.5328
  456THF     H7 8922   2.101   2.016   0.144  0.9929 -0.4013 -2.5657
  456THF     C8 8923   2.324   1.989   0.158 -0.4379  0.2371  0.1709
  456THF     C9 8924   2.369   1.995   0.014 -0.8489 -0.1196  0.1409
  456THF    H10 8925   2.297   1.886   0.183 -1.4407  0.5306  0.3309
  456THF    H11 8926   2.400   2.026   0.227 -1.0475  0.1544  0.8977
  456THF    H12 8927   2.473   2.027   0.008 -0.8448 -0.0939  0.3254
  456THF    H13 8928   2.368   1.896  -0.030  0.5033  0.2178 -0.7133
  457THF     O1 8929   2.928   1.944   4.162 -0.2711 -0.3524  0.3264
  457THF     C2 8930   2.870   1.977   4.036 -0.3186  0.6062  0.1428
  457THF     C3 8931   3.021   1.849   4.124  0.0768 -0.0985  0.0166
  457THF     H4 8932   2.821   2.075   4.039 -2.3548 -0.3492 -0.3363
  457THF     H5 8933   2.781   1.918   4.013  0.9418 -0.4363 -2.3774
  457THF     H6 8934   3.096   1.821   4.198 -0.0695 -1.2999 -0.2747
  457THF     H7 8935   2.959   1.760   4.117  0.0224 -0.1141  0.6513
  457THF     C8 8936   3.084   1.894   3.992  0.3655 -0.1521 -0.2754
  457THF     C9 8937   2.978   1.973   3.926 -0.4970  0.1909  0.6243
  457THF    H10 8938   3.104   1.803   3.935 -2.1042 -0.7366 -0.3240
  457THF    H11 8939   3.175   1.952   4.011  0.7594 -0.3343 -1.5375
  457THF    H12 8940   3.026   2.061   3.883 -0.3989 -0.9949 -1.8026
  457THF    H13 8941   2.945   1.905   3.848  0.3686 -0.1601  0.5556
  458THF     O1 8942   0.594   0.643   3.464 -0.1078 -0.7707  0.0134
  458THF     C2 8943   0.590   0.507   3.418 -0.0189 -0.0674 -0.3396
  458THF     C3 8944   0.488   0.671   3.550  0.4098  0.0602 -0.0326
  458THF     H4 8945   0.646   0.444   3.487  0.7685 -0.7394 -1.5459
  458THF     H5 8946   0.646   0.481   3.328 -1.4236 -1.4382 -0.8715
  458THF     H6 8947   0.512   0.622   3.644 -0.9397 -1.6835 -0.5399
  458THF     H7 8948   0.474   0.777   3.571 -2.4550 -0.2174 -0.0881
  458THF     C8 8949   0.382   0.587   3.479 -0.1474 -0.2308 -0.3773
  458THF     C9 8950   0.443   0.464   3.416 -0.1648 -0.4021  0.6691
  458THF    H10 8951   0.312   0.636   3.412 -0.4039  2.2888  1.6009
  458THF    H11 8952   0.311   0.532   3.542 -0.3997 -1.5133 -1.7243
  458THF    H12 8953   0.441   0.370   3.471  1.1640  0.2389  1.8749
  458THF    H13 8954   0.412   0.448   3.312  0.7909 -1.8684  0.5858
  459THF     O1 8955   4.088   5.299   2.611 -0.2399 -0.2445 -0.4382
  459THF     C2 8956   4.222   5.309   2.588 -0.1002 -0.2116  0.2185
  459THF     C3 8957   4.033   5.429   2.607  0.5439 -0.0700 -0.3469
  459THF     H4 8958   4.242   5.297   2.482 -0.6515 -0.4457  0.1383
  459THF     H5 8959   4.270   5.229   2.644  0.2176 -0.4392 -0.3800
  459THF     H6 8960   4.000   5.442   2.504  0.2498 -1.2910 -0.4239
  459THF     H7 8961   3.947   5.442   2.673  0.5172  0.9413 -0.5683
  459THF     C8 8962   4.141   5.531   2.638  0.1538 -0.6100  0.9518
  459THF     C9 8963   4.258   5.451   2.647 -0.8060  0.4864 -0.4008
  459THF    H10 8964   4.117   5.590   2.727 -0.7946  1.9788 -0.8996
  459THF    H11 8965   4.154   5.604   2.558 -1.9449  0.9720  1.9527
  459THF    H12 8966   4.354   5.492   2.613 -0.9061  1.6012  0.5975
  459THF    H13 8967   4.277   5.442   2.754 -0.2324  2.1105 -0.3380
  460THF     O1 8968   4.508   1.437   4.025  0.0690 -0.1727  0.7037
  460THF     C2 8969   4.615   1.342   4.029 -0.1497 -0.0635 -0.3804
  460THF     C3 8970   4.576   1.562   4.006 -0.5478 -0.1363 -0.1706
  460THF     H4 8971   4.651   1.342   3.926  3.3540 -1.6080  0.7062
  460THF     H5 8972   4.578   1.242   4.054 -0.5459 -0.4231 -2.2113
  460THF     H6 8973   4.601   1.590   3.903 -0.7671 -0.0165 -0.1925
  460THF     H7 8974   4.510   1.640   4.044 -0.2671 -0.4483  0.9714
  460THF     C8 8975   4.705   1.547   4.088 -0.2831  0.1215  0.6491
  460THF     C9 8976   4.724   1.402   4.111 -0.2226  0.5192 -0.8312
  460THF    H10 8977   4.715   1.594   4.186 -2.0952  0.2897  0.7861
  460THF    H11 8978   4.782   1.577   4.018 -0.9332  0.3878  0.0372
  460THF    H12 8979   4.823   1.368   4.085 -0.4051  0.4175 -1.3906
  460THF    H13 8980   4.722   1.381   4.218 -0.0397  3.1630 -0.2471
  461THF     O1 8981   4.816   1.771   4.470  0.0409 -0.6517 -0.0046
  461THF     C2 8982   4.853   1.639   4.463 -0.1849  0.6523 -0.1491
  461THF     C3 8983   4.682   1.780   4.428  0.4039 -0.5826  0.2735
  461THF     H4 8984   4.945   1.607   4.511  0.7366  0.1299 -2.1697
  461THF     H5 8985   4.888   1.634   4.360  0.2665  0.7310 -0.0014
  461THF     H6 8986   4.640   1.857   4.491 -0.4027 -1.2334  0.5453
  461THF     H7 8987   4.669   1.803   4.322 -0.5482  1.1974  0.7363
  461THF     C8 8988   4.616   1.645   4.465  0.3260 -0.3778  0.5987
  461THF     C9 8989   4.735   1.551   4.489 -0.1105 -0.0077  0.0217
  461THF    H10 8990   4.548   1.607   4.389 -0.1027 -0.4927  1.0386
  461THF    H11 8991   4.560   1.664   4.556  1.7980  1.9847  1.0873
  461THF    H12 8992   4.746   1.533   4.596  3.9220  0.7435 -0.1362
  461THF    H13 8993   4.730   1.456   4.435  0.1917  0.8611 -1.5857
  462THF     O1 8994   1.277   4.871   4.678 -0.1642  0.0240 -0.0265
  462THF     C2 8995   1.330   4.933   4.791  0.5067 -0.0377 -0.4785
  462THF     C3 8996   1.179   4.962   4.626 -0.4953 -0.2210  0.1740
  462THF     H4 8997   1.422   4.883   4.822  0.9814 -1.0812 -3.2826
  462THF     H5 8998   1.263   4.932   4.877 -0.0327  0.0353 -0.8937
  462THF     H6 8999   1.153   4.916   4.531 -1.5766 -2.0556  1.3012
  462THF     H7 9000   1.081   4.967   4.672 -2.4288  2.3565 -3.7271
  462THF     C8 9001   1.249   5.100   4.643  0.5798  0.5460  0.1410
  462THF     C9 9002   1.358   5.067   4.741 -0.5645  0.2052 -0.1092
  462THF    H10 9003   1.190   5.179   4.691  0.8211  0.8720 -0.0908
  462THF    H11 9004   1.283   5.145   4.550 -1.8009  2.0376 -0.1057
  462THF    H12 9005   1.456   5.065   4.693 -0.1834  1.9762  0.5276
  462THF    H13 9006   1.391   5.138   4.817 -0.0930 -2.6952  2.6014
  463THF     O1 9007   2.133   2.646   3.633 -0.3970  0.6105 -0.3766
  463THF     C2 9008   2.221   2.642   3.520 -0.8465 -0.2761 -0.0880
  463THF     C3 9009   2.036   2.549   3.614 -0.3074 -0.0812 -0.2731
  463THF     H4 9010   2.302   2.715   3.516 -0.5728 -0.5251  0.7034
  463THF     H5 9011   2.160   2.673   3.435 -0.2357 -0.5547 -0.6434
  463THF     H6 9012   1.974   2.535   3.703  0.1864  1.1130  0.2731
  463THF     H7 9013   1.974   2.564   3.526  1.6394 -2.1342 -2.1055
  463THF     C8 9014   2.128   2.430   3.577  0.5146 -0.2393 -0.0016
  463THF     C9 9015   2.258   2.490   3.510  0.8936 -0.1177 -0.1267
  463THF    H10 9016   2.078   2.346   3.527 -1.3099 -1.2999  3.3199
  463THF    H11 9017   2.146   2.385   3.674 -0.3375  1.2532  0.8897
  463THF    H12 9018   2.354   2.461   3.552 -0.0350 -0.9403  1.5197
  463THF    H13 9019   2.272   2.460   3.406  0.5212  0.5750 -0.3834
  464THF     O1 9020   3.881   0.252   2.362 -0.0526  0.0479 -0.2430
  464THF     C2 9021   3.818   0.375   2.394  0.1111 -0.2406  0.0356
  464THF     C3 9022   4.013   0.285   2.320  0.5589  0.6417 -0.2043
  464THF     H4 9023   3.820   0.387   2.502 -1.5195 -0.1601  0.0867
  464THF     H5 9024   3.712   0.382   2.370  0.4957  0.1505 -1.6870
  464THF     H6 9025   4.088   0.218   2.363  1.2944  1.3672 -0.3320
  464THF     H7 9026   4.013   0.270   2.212 -0.0762 -1.2214  0.0348
  464THF     C8 9027   4.042   0.427   2.353 -0.3006 -0.0499 -0.6289
  464THF     C9 9028   3.906   0.483   2.329 -0.4714 -0.0289 -0.3353
  464THF    H10 9029   4.114   0.474   2.286  0.2054 -1.2503 -0.9485
  464THF    H11 9030   4.060   0.437   2.460 -0.3225 -1.9874 -0.4214
  464THF    H12 9031   3.901   0.581   2.376  0.8542 -0.4718  0.7980
  464THF    H13 9032   3.880   0.494   2.224 -1.1934  0.5727 -0.1030
  465THF     O1 9033   3.072   4.341   2.401 -0.6528  0.0410  0.2036
  465THF     C2 9034   3.000   4.433   2.472  0.5059  0.4571 -0.2323
  465THF     C3 9035   2.989   4.280   2.301 -0.1400  0.2228 -0.3972
  465THF     H4 9036   3.065   4.518   2.491  1.5562 -0.8644  2.6060
  465THF     H5 9037   2.975   4.402   2.574 -1.7419 -1.1587 -1.1824
  465THF     H6 9038   3.039   4.238   2.214 -3.0248  0.9585 -2.5573
  465THF     H7 9039   2.928   4.209   2.356  2.0154 -1.8350 -0.5212
  465THF     C8 9040   2.894   4.393   2.264  0.1195 -0.0481 -0.6823
  465THF     C9 9041   2.879   4.473   2.397 -0.3765 -0.0670  0.2669
  465THF    H10 9042   2.802   4.360   2.216 -0.5115  2.1198 -1.0876
  465THF    H11 9043   2.944   4.451   2.186 -0.4759 -2.1709 -2.7676
  465THF    H12 9044   2.883   4.578   2.371  0.1649 -0.0889  0.2412
  465THF    H13 9045   2.780   4.461   2.440 -0.6504  0.2083 -0.2739
  466THF     O1 9046   4.709   5.247   4.731 -0.3423 -0.0654  0.2286
  466THF     C2 9047   4.637   5.360   4.774 -0.6367  0.4724 -0.2331
  466THF     C3 9048   4.762   5.188   4.853  0.4308  0.0387  0.3170
  466THF     H4 9049   4.542   5.328   4.815 -0.4170 -0.0534 -0.1302
  466THF     H5 9050   4.612   5.424   4.689  1.7019  0.0226 -1.3488
  466THF     H6 9051   4.687   5.118   4.890 -0.7801  1.0403 -0.1604
  466THF     H7 9052   4.850   5.127   4.834  1.6433  0.5568  3.6186
  466THF     C8 9053   4.779   5.304   4.950  0.4473  0.1488 -0.0677
  466THF     C9 9054   4.726   5.426   4.877  0.1291  0.4234  0.7735
  466THF    H10 9055   4.882   5.315   4.986  0.4739  0.1129 -0.1338
  466THF    H11 9056   4.718   5.292   5.039 -0.2684  1.6965 -0.3054
  466THF    H12 9057   4.664   5.494   4.935  1.4153  0.7111  1.8635
  466THF    H13 9058   4.802   5.483   4.824 -0.7904 -0.1669 -1.2965
  467THF     O1 9059   3.700   1.532   3.343  0.2687  0.1764 -0.2069
  467THF     C2 9060   3.590   1.459   3.395 -0.0929  0.3473 -0.4094
  467THF     C3 9061   3.646   1.590   3.225 -0.3017 -0.0957 -0.4068
  467THF     H4 9062   3.520   1.516   3.456  2.1227  1.3384  1.3222
  467THF     H5 9063   3.610   1.378   3.465  0.0083 -1.1447 -2.0843
  467THF     H6 9064   3.578   1.672   3.249  0.4919 -0.0011  1.7586
  467THF     H7 9065   3.724   1.625   3.158 -1.4966 -0.9093 -2.3103
  467THF     C8 9066   3.565   1.480   3.155  0.1632 -0.4517  0.4972
  467THF     C9 9067   3.518   1.400   3.272  0.0789  0.0910 -0.6035
  467THF    H10 9068   3.626   1.418   3.089  1.5177  0.7091  0.5873
  467THF    H11 9069   3.484   1.531   3.103  3.2787  2.2805 -2.1705
  467THF    H12 9070   3.409   1.395   3.275  0.0675 -0.5554 -1.6092
  467THF    H13 9071   3.545   1.295   3.276  0.7709  0.3011  0.9413
  468THF     O1 9072   5.211   0.524   2.423  0.2906  0.0869  0.0829
  468THF     C2 9073   5.255   0.640   2.354 -0.5333  0.1506  0.6284
  468THF     C3 9074   5.203   0.405   2.338 -0.2221 -0.5553 -0.1320
  468THF     H4 9075   5.350   0.664   2.402 -0.8847  1.0529  0.8863
  468THF     H5 9076   5.191   0.727   2.366 -1.4283 -0.2714 -0.8042
  468THF     H6 9077   5.225   0.309   2.384  1.9293 -0.1345 -0.1759
  468THF     H7 9078   5.100   0.395   2.303 -0.7169 -0.6426  1.2974
  468THF     C8 9079   5.285   0.443   2.217  0.4780  0.1032 -0.1184
  468THF     C9 9080   5.276   0.590   2.209  0.4079 -0.1131 -0.1745
  468THF    H10 9081   5.245   0.384   2.134 -0.7482 -0.9192  1.1464
  468THF    H11 9082   5.387   0.405   2.223  0.8174  0.8098 -1.0882
  468THF    H12 9083   5.363   0.633   2.161  0.2065  1.7183  1.0056
  468THF    H13 9084   5.190   0.604   2.145 -0.5877  0.8441  1.3014
  469THF     O1 9085   3.445   1.374   4.474  0.8002  0.3280 -0.1926
  469THF     C2 9086   3.402   1.503   4.438  0.5500 -0.3066  0.2872
  469THF     C3 9087   3.505   1.382   4.602 -0.4402  0.0291  0.0489
  469THF     H4 9088   3.303   1.535   4.469  0.5706 -1.2343  1.3615
  469THF     H5 9089   3.387   1.503   4.330  1.1325  0.4250  0.1929
  469THF     H6 9090   3.438   1.346   4.681 -0.3976 -0.5624 -0.1744
  469THF     H7 9091   3.602   1.333   4.600  0.8119  2.4155 -0.2821
  469THF     C8 9092   3.524   1.536   4.626  0.6044  0.3106 -0.4933
  469THF     C9 9093   3.497   1.601   4.495 -0.8865  0.1389 -0.2384
  469THF    H10 9094   3.625   1.563   4.659  0.2974 -0.5082  1.2338
  469THF    H11 9095   3.451   1.568   4.700  0.8032 -1.4906  0.5375
  469THF    H12 9096   3.451   1.699   4.504 -1.6353 -0.3167  1.2623
  469THF    H13 9097   3.593   1.610   4.445 -0.4906  1.1997  0.6796
  470THF     O1 9098   2.573   0.278   3.930  0.4433  0.3056  0.2298
  470THF     C2 9099   2.646   0.302   4.048 -0.3813 -0.4854 -0.5772
  470THF     C3 9100   2.505   0.158   3.953 -0.2630  0.2241 -0.1134
  470THF     H4 9101   2.673   0.406   4.063  0.4377 -0.8601  0.6455
  470THF     H5 9102   2.745   0.256   4.044  0.1688  0.5887  0.3499
  470THF     H6 9103   2.424   0.114   3.894 -0.1975 -0.1349  0.0593
  470THF     H7 9104   2.576   0.079   3.977 -0.2160  0.9871  2.5454
  470THF     C8 9105   2.438   0.193   4.085 -0.0678  0.2979  0.3870
  470THF     C9 9106   2.551   0.260   4.159  0.0301  0.9149  0.3025
  470THF    H10 9107   2.388   0.109   4.132  0.6894  0.4150  1.4443
  470THF    H11 9108   2.362   0.270   4.076  1.5363  2.1964  2.1085
  470THF    H12 9109   2.526   0.335   4.235 -1.5998 -0.3142  1.0248
  470THF    H13 9110   2.611   0.187   4.214 -1.0399 -1.9760 -2.1213
  471THF     O1 9111   2.379   1.876   2.923 -0.1674  0.8673 -0.1491
  471THF     C2 9112   2.380   1.726   2.937  0.5020  0.3371 -0.0432
  471THF     C3 9113   2.244   1.903   2.926 -0.3293 -0.7443  0.1552
  471THF     H4 9114   2.371   1.695   3.041 -0.2595 -0.2041 -0.2619
  471THF     H5 9115   2.467   1.674   2.897 -0.1102 -0.2876 -0.5685
  471THF     H6 9116   2.186   1.875   3.013 -1.1706 -1.3796 -0.5841
  471THF     H7 9117   2.226   2.009   2.910  0.1094 -0.3344  2.1605
  471THF     C8 9118   2.182   1.805   2.830  0.5323  0.5125 -0.5500
  471THF     C9 9119   2.258   1.674   2.868 -0.6513 -0.3321  0.2175
  471THF    H10 9120   2.190   1.820   2.722 -0.8125  0.1956 -0.7119
  471THF    H11 9121   2.074   1.801   2.846  0.6718  0.1527  0.3244
  471THF    H12 9122   2.184   1.617   2.924 -2.0503  0.7223 -0.4674
  471THF    H13 9123   2.276   1.609   2.782 -0.0996 -2.3112  1.7761
  472THF     O1 9124   3.848   2.387   2.276  0.1671  0.2686  0.4522
  472THF     C2 9125   3.781   2.443   2.380  0.4947 -0.4365  0.8918
  472THF     C3 9126   3.982   2.433   2.270 -0.7074  0.0438  0.3052
  472THF     H4 9127   3.785   2.384   2.472 -1.4631 -0.5568  0.9411
  472THF     H5 9128   3.675   2.441   2.355 -0.1078 -1.3349  3.3038
  472THF     H6 9129   4.037   2.379   2.347 -0.7402 -0.9207 -0.3277
  472THF     H7 9130   4.022   2.419   2.170 -2.5708 -0.7663 -0.3753
  472THF     C8 9131   3.962   2.582   2.305 -0.5118  0.7511  0.1431
  472THF     C9 9132   3.831   2.585   2.382 -0.7160 -0.0911 -0.2089
  472THF    H10 9133   3.957   2.647   2.217  0.1427 -0.3385 -0.7197
  472THF    H11 9134   4.049   2.617   2.361 -1.1594  3.5593 -0.4290
  472THF    H12 9135   3.845   2.623   2.483  0.2627 -1.0787  0.0538
  472THF    H13 9136   3.764   2.654   2.332 -1.3880  0.3283  1.2386
  473THF     O1 9137   4.297   0.986   0.557 -0.4475 -0.0757  0.1685
  473THF     C2 9138   4.194   1.029   0.466 -0.0921  0.1133 -0.6399
  473THF     C3 9139   4.360   0.865   0.499 -0.5466 -0.2078 -0.0197
  473THF     H4 9140   4.229   1.079   0.376 -1.6495  1.2408 -0.6585
  473THF     H5 9141   4.128   1.103   0.511 -0.2853  0.1377 -0.9586
  473THF     H6 9142   4.440   0.892   0.430 -2.9913  0.1381 -2.9115
  473THF     H7 9143   4.391   0.826   0.596 -0.2711  0.7534  0.2909
  473THF     C8 9144   4.238   0.789   0.440  0.2631 -0.2912 -0.1861
  473THF     C9 9145   4.126   0.893   0.441 -0.1972  0.5826 -0.3702
  473THF    H10 9146   4.213   0.706   0.505  0.4267  0.1418  0.4374
  473THF    H11 9147   4.268   0.745   0.345 -1.1397  0.2025 -0.8779
  473THF    H12 9148   4.065   0.893   0.352  0.6138  0.7071 -0.9387
  473THF    H13 9149   4.057   0.867   0.522 -0.1218  0.6201 -0.2929
  474THF     O1 9150   4.476   4.866   1.252 -0.4310 -0.0167 -0.2996
  474THF     C2 9151   4.338   4.838   1.218  0.2546 -0.5443 -0.3706
  474THF     C3 9152   4.510   4.798   1.366 -0.1486 -0.2720  0.0418
  474THF     H4 9153   4.337   4.853   1.110 -0.3463 -2.4765 -0.6749
  474THF     H5 9154   4.266   4.899   1.272 -2.2735 -2.5139 -1.3086
  474THF     H6 9155   4.618   4.786   1.361 -0.2068 -0.4601 -1.4790
  474THF     H7 9156   4.488   4.847   1.461 -1.3701 -1.9422  0.6660
  474THF     C8 9157   4.432   4.663   1.352  0.5521 -0.5431 -0.0675
  474THF     C9 9158   4.323   4.692   1.252 -0.3540 -0.7949  0.2655
  474THF    H10 9159   4.391   4.629   1.448 -0.7118  2.0368  0.3818
  474THF    H11 9160   4.500   4.587   1.313  0.5039 -0.8975  0.5198
  474THF    H12 9161   4.336   4.627   1.166 -0.9701  2.6204 -2.6457
  474THF    H13 9162   4.227   4.666   1.296 -0.3307  0.1642  0.9161
  475THF     O1 9163   5.422   3.126   3.544  0.0663  0.2477  0.4658
  475THF     C2 9164   5.485   3.225   3.632 -0.3672  0.0588 -0.2002
  475THF     C3 9165   5.410   3.182   3.425 -0.4564  0.5336  0.2834
  475THF     H4 9166   5.580   3.189   3.671 -0.2411 -0.5541 -1.0600
  475THF     H5 9167   5.418   3.241   3.716 -2.0255 -0.6818 -1.3234
  475THF     H6 9168   5.507   3.161   3.379 -0.2217  0.4254  0.8237
  475THF     H7 9169   5.327   3.136   3.372 -1.9536 -0.4609  3.2895
  475THF     C8 9170   5.391   3.334   3.443  0.3283 -0.2908  0.1481
  475THF     C9 9171   5.494   3.358   3.557  0.4911 -0.3953 -0.2360
  475THF    H10 9172   5.286   3.343   3.472  0.0828 -0.8296 -0.5346
  475THF    H11 9173   5.416   3.390   3.352 -1.9816  0.1914 -0.2492
  475THF    H12 9174   5.595   3.387   3.526  0.3642 -2.0201 -2.4744
  475THF    H13 9175   5.463   3.445   3.615  2.3040 -0.3362  0.7071
  476THF     O1 9176   2.572   4.693   3.025  0.2626  0.0043 -0.5976
  476THF     C2 9177   2.644   4.725   2.910 -0.1051  0.3982  0.1775
  476THF     C3 9178   2.463   4.609   2.989 -0.7197 -0.2401  0.2933
  476THF     H4 9179   2.745   4.725   2.950 -0.3792  2.4901  0.9906
  476THF     H5 9180   2.620   4.825   2.872 -1.3322  1.0573  2.5324
  476THF     H6 9181   2.414   4.563   3.075 -1.1303  3.4493  2.1881
  476THF     H7 9182   2.384   4.664   2.939 -0.6546  0.4402  0.9397
  476THF     C8 9183   2.524   4.517   2.887 -0.0254  0.8409 -0.4706
  476THF     C9 9184   2.609   4.616   2.810  0.0758  0.1870 -0.1516
  476THF    H10 9185   2.450   4.465   2.827 -0.2102 -0.7607  1.0655
  476THF    H11 9186   2.580   4.431   2.926  0.8570  0.7694 -1.8314
  476THF    H12 9187   2.691   4.554   2.775  0.1097  0.2807 -0.2383
  476THF    H13 9188   2.538   4.649   2.733 -1.8031  1.7723  2.0991
  477THF     O1 9189   4.350   4.177   4.041 -0.1941  0.3578  0.4021
  477THF     C2 9190   4.288   4.074   3.960  0.0754  0.3597 -0.0006
  477THF     C3 9191   4.474   4.216   3.988  1.3187 -0.1043  0.0343
  477THF     H4 9192   4.180   4.087   3.963  0.0819  0.2908  0.7883
  477THF     H5 9193   4.299   3.979   4.012 -3.3988 -0.3784 -0.3286
  477THF     H6 9194   4.455   4.317   3.952 -0.1453 -0.7365 -1.0584
  477THF     H7 9195   4.555   4.218   4.061  0.6591  1.3625  0.7646
  477THF     C8 9196   4.497   4.118   3.871  0.1945 -0.5224 -0.5420
  477THF     C9 9197   4.352   4.086   3.828 -0.2078 -0.3501 -0.4617
  477THF    H10 9198   4.539   4.023   3.904  0.0686 -0.0164  1.1711
  477THF    H11 9199   4.554   4.165   3.791 -0.0065 -1.0051 -0.9745
  477THF    H12 9200   4.298   4.172   3.787 -1.2697 -0.5441  0.4714
  477THF    H13 9201   4.347   3.997   3.766 -1.2560 -1.7376  1.5193
  478THF     O1 9202   0.676   2.860   1.671  0.2634 -0.1436  0.2643
  478THF     C2 9203   0.708   2.988   1.716  0.5164  0.5660  0.2235
  478THF     C3 9204   0.765   2.766   1.732 -0.4324  0.6153  0.1254
  478THF     H4 9205   0.619   3.050   1.709  0.6027  0.9660  2.0763
  478THF     H5 9206   0.791   3.021   1.654 -0.1667 -0.6492 -1.4081
  478THF     H6 9207   0.712   2.674   1.757  1.2152 -0.3654  0.2057
  478THF     H7 9208   0.854   2.735   1.676 -1.4903  0.0604 -1.3121
  478THF     C8 9209   0.800   2.828   1.866 -0.4408 -0.2034  0.2662
  478THF     C9 9210   0.743   2.969   1.857  0.0667  0.1465 -0.7255
  478THF    H10 9211   0.907   2.829   1.882 -0.3471  1.2238 -0.3272
  478THF    H11 9212   0.756   2.776   1.951  3.5027 -1.5998  1.6745
  478THF    H12 9213   0.655   2.969   1.921  0.3333 -2.4004 -0.2372
  478THF    H13 9214   0.808   3.047   1.897 -1.0205 -0.6960  3.0038
  479THF     O1 9215   2.178   1.813   1.963  0.1481  0.2867 -0.4404
  479THF     C2 9216   2.089   1.762   2.061 -0.0554  0.1597 -0.8595
  479THF     C3 9217   2.282   1.869   2.034 -0.2794  0.3207  0.3200
  479THF     H4 9218   2.136   1.666   2.087  0.8476  0.7285 -0.3357
  479THF     H5 9219   1.988   1.736   2.031 -0.4896 -1.5770  1.7666
  479THF     H6 9220   2.343   1.780   2.049 -1.6887 -0.7998 -0.3529
  479THF     H7 9221   2.339   1.937   1.971  0.4588 -0.0957  0.5288
  479THF     C8 9222   2.226   1.934   2.157  0.3788 -0.0858 -0.2357
  479THF     C9 9223   2.094   1.854   2.178  0.2200 -0.6936 -0.5379
  479THF    H10 9224   2.203   2.039   2.140 -2.6939 -0.1655  2.2927
  479THF    H11 9225   2.286   1.922   2.247  1.5118  1.3719 -0.7641
  479THF    H12 9226   2.098   1.800   2.272  0.0498  0.4731  0.1623
  479THF    H13 9227   2.011   1.925   2.179 -0.8433 -1.9078  0.8385
  480THF     O1 9228   4.726   1.175   4.759  0.0772  0.1162  0.7552
  480THF     C2 9229   4.797   1.076   4.830  0.1865  0.1723  0.3873
  480THF     C3 9230   4.757   1.158   4.621  0.1953 -0.3001 -0.2012
  480THF     H4 9231   4.751   1.049   4.925  0.2045  0.9640  0.6338
  480THF     H5 9232   4.891   1.115   4.869  1.2477 -0.0354 -1.8157
  480THF     H6 9233   4.697   1.222   4.555  2.2106 -1.5845 -3.4981
  480THF     H7 9234   4.861   1.186   4.606  0.6291 -1.5139  0.4091
  480THF     C8 9235   4.728   1.009   4.604  0.3941 -0.2826  0.6938
  480THF     C9 9236   4.808   0.961   4.730  1.2406  0.2764  0.4545
  480THF    H10 9237   4.788   0.983   4.517 -0.2224  0.0912  0.1516
  480THF    H11 9238   4.626   0.974   4.590  0.4900 -0.2008 -0.2776
  480THF    H12 9239   4.755   0.876   4.773 -0.7858  1.5639  0.6177
  480THF    H13 9240   4.912   0.949   4.700  1.4596  2.5820  0.1007
  481THF     O1 9241   4.455   1.616   3.282  0.2604  0.2778  0.0600
  481THF     C2 9242   4.342   1.578   3.364  0.1254  0.2561  1.0612
  481THF     C3 9243   4.485   1.744   3.321 -0.8586 -0.0473  0.1527
  481THF     H4 9244   4.356   1.538   3.465 -1.3488 -0.1653  1.1257
  481THF     H5 9245   4.288   1.498   3.313  1.5354 -0.9312  1.3747
  481THF     H6 9246   4.556   1.746   3.404  0.4230 -2.2760 -0.7818
  481THF     H7 9247   4.540   1.792   3.241 -0.8440  1.6072  1.1177
  481THF     C8 9248   4.353   1.802   3.377  0.3550 -1.4257  0.2887
  481THF     C9 9249   4.249   1.695   3.374 -0.0986 -0.2061 -0.0420
  481THF    H10 9250   4.309   1.886   3.325 -0.4847 -0.4512  2.4461
  481THF    H11 9251   4.356   1.842   3.479 -0.1198  0.0963 -0.2676
  481THF    H12 9252   4.185   1.688   3.462  0.3358  0.8394  0.3831
  481THF    H13 9253   4.185   1.701   3.286 -0.1813 -0.3054  0.0125
  482THF     O1 9254   5.200   3.913   3.846  0.6651  0.3899  0.0319
  482THF     C2 9255   5.170   4.012   3.745  0.1129 -0.1638 -0.2115
  482THF     C3 9256   5.323   3.940   3.907 -0.1797 -0.1354 -0.4444
  482THF     H4 9257   5.063   4.016   3.724  0.2338 -1.0286 -1.1097
  482THF     H5 9258   5.210   3.985   3.647  1.1798  1.3402 -0.2169
  482THF     H6 9259   5.330   3.888   4.003 -0.2826  0.0464 -0.3353
  482THF     H7 9260   5.405   3.906   3.845  0.5774  0.8321  0.0001
  482THF     C8 9261   5.325   4.095   3.923  0.5340 -0.6310  0.1330
  482THF     C9 9262   5.236   4.137   3.803  0.4831 -0.4011 -0.2133
  482THF    H10 9263   5.421   4.147   3.927  0.7715 -0.8570 -1.6542
  482THF    H11 9264   5.272   4.131   4.011  2.2531 -0.4913  1.1534
  482THF    H12 9265   5.157   4.201   3.842 -0.2226 -2.0306  1.1461
  482THF    H13 9266   5.298   4.201   3.740  1.2635 -0.6362  0.3002
  483THF     O1 9267   3.320   3.220   4.647  0.6306 -0.1915 -0.4308
  483THF     C2 9268   3.423   3.235   4.748 -0.2726  0.1014  0.1787
  483THF     C3 9269   3.386   3.203   4.522  0.2211  0.1605  0.1998
  483THF     H4 9270   3.445   3.138   4.794 -0.2194 -1.1986 -2.4195
  483THF     H5 9271   3.395   3.307   4.824  1.2020  0.7570  0.1257
  483THF     H6 9272   3.416   3.099   4.514  0.2236  0.2552 -1.2261
  483THF     H7 9273   3.327   3.221   4.432  1.5443 -1.2165 -0.9884
  483THF     C8 9274   3.502   3.299   4.536 -0.3894 -0.5960  0.5043
  483THF     C9 9275   3.542   3.286   4.677 -0.6671  0.3654 -0.9112
  483THF    H10 9276   3.471   3.401   4.512  1.8573 -0.3086 -1.6328
  483THF    H11 9277   3.569   3.275   4.453 -0.6249 -3.0693  0.9560
  483THF    H12 9278   3.620   3.211   4.692  0.1415  1.5867  1.5505
  483THF    H13 9279   3.570   3.387   4.707 -0.1193  0.1905 -0.8245
  484THF     O1 9280   4.037   1.410   3.358 -0.1359 -0.4361  0.8592
  484THF     C2 9281   4.005   1.424   3.217 -0.4838  0.4918 -0.5498
  484THF     C3 9282   4.000   1.283   3.410  1.1853 -0.8525 -0.3906
  484THF     H4 9283   4.065   1.508   3.182  1.7455 -0.4159  0.8765
  484THF     H5 9284   3.898   1.433   3.199 -0.4054 -0.7841 -1.8950
  484THF     H6 9285   4.063   1.257   3.495 -2.1891 -0.2174  2.5313
  484THF     H7 9286   3.902   1.296   3.455  2.4682  0.9682  2.1617
  484THF     C8 9287   3.996   1.191   3.289 -0.1798 -0.0362 -0.2540
  484THF     C9 9288   4.043   1.283   3.168 -0.0819  0.2460  0.5309
  484THF    H10 9289   3.896   1.155   3.266 -0.2401 -2.0543  2.7028
  484THF    H11 9290   4.056   1.101   3.301 -0.1387  0.0509  0.2126
  484THF    H12 9291   4.152   1.286   3.163  0.0046 -1.5907  0.6649
  484THF    H13 9292   3.992   1.264   3.074  1.2269  2.6801 -0.7632
  485THF     O1 9293   0.287   0.063   4.861  0.0084 -0.3178  0.1936
  485THF     C2 9294   0.212   0.171   4.810  0.5490  0.3581  0.1250
  485THF     C3 9295   0.302  -0.036   4.758  0.1606  0.3863 -0.6723
  485THF     H4 9296   0.273   0.243   4.755 -0.9323  1.7046  0.2042
  485THF     H5 9297   0.162   0.231   4.886 -0.6348 -1.8362  1.1572
  485THF     H6 9298   0.404  -0.036   4.718  1.6585 -1.4287  2.7573
  485THF     H7 9299   0.284  -0.137   4.794  1.2083  0.6821  0.7931
  485THF     C8 9300   0.197  -0.003   4.655 -0.6415 -0.3416  0.0015
  485THF     C9 9301   0.114   0.112   4.715  1.0883 -0.0865 -0.1009
  485THF    H10 9302   0.148  -0.091   4.613 -0.4164 -0.1259 -0.7429
  485THF    H11 9303   0.257   0.040   4.575  1.8124 -2.3238  0.6571
  485THF    H12 9304   0.088   0.194   4.648  0.3512 -0.1109  0.1445
  485THF    H13 9305   0.029   0.078   4.774  1.4087 -2.3461 -0.8236
  486THF     O1 9306   2.816   1.080   0.260 -0.4062  0.4064  0.0786
  486THF     C2 9307   2.729   1.174   0.321 -0.0165 -0.3337  0.4997
  486THF     C3 9308   2.835   0.966   0.347  0.0159 -0.0202 -0.4033
  486THF     H4 9309   2.633   1.171   0.270 -1.2499  1.9241  2.5001
  486THF     H5 9310   2.766   1.277   0.317 -0.2094 -0.2995 -1.1340
  486THF     H6 9311   2.767   0.889   0.309  0.5731  0.1197 -1.7540
  486THF     H7 9312   2.935   0.924   0.349 -0.3330 -0.9676 -1.4916
  486THF     C8 9313   2.791   1.012   0.484  0.1132 -0.2395 -0.3437
  486THF     C9 9314   2.689   1.117   0.452 -0.1584  0.2065  0.0048
  486THF    H10 9315   2.871   1.050   0.547 -3.0039  3.6341  1.7621
  486THF    H11 9316   2.727   0.941   0.538  2.7604 -1.4310  1.4286
  486THF    H12 9317   2.594   1.072   0.422  0.1954  0.8102 -2.2574
  486THF    H13 9318   2.672   1.191   0.530 -0.2180  0.0823  0.1089
  487THF     O1 9319   2.393   1.749   3.453  0.4342  0.2969  0.5645
  487THF     C2 9320   2.345   1.815   3.332 -0.5250  0.7734  0.3951
  487THF     C3 9321   2.301   1.767   3.554  0.2022 -0.0712  0.5804
  487THF     H4 9322   2.271   1.753   3.281  2.6174 -1.6856 -1.6172
  487THF     H5 9323   2.427   1.829   3.261 -0.6651  1.5823  0.3867
  487THF     H6 9324   2.236   1.681   3.546  0.3998 -0.1745  0.0580
  487THF     H7 9325   2.347   1.758   3.653  0.6368 -0.1137  0.3785
  487THF     C8 9326   2.234   1.904   3.529 -0.2159 -0.2472 -0.0058
  487THF     C9 9327   2.268   1.932   3.379 -1.0901  0.5861  0.0725
  487THF    H10 9328   2.278   1.985   3.588  1.1055 -0.3130 -0.8648
  487THF    H11 9329   2.126   1.913   3.538 -0.1349  0.5314  0.2605
  487THF    H12 9330   2.188   1.953   3.308 -0.7276  0.2606 -0.4374
  487THF    H13 9331   2.338   2.016   3.379 -0.7782  0.3820  2.4271
  488THF     O1 9332   3.834   2.097   5.254 -0.6252 -0.3170  0.0714
  488THF     C2 9333   3.794   1.994   5.159  0.0987  0.0344 -0.2992
  488THF     C3 9334   3.970   2.079   5.282  0.4908  0.0496 -0.7920
  488THF     H4 9335   3.819   2.037   5.062 -0.3116  3.7125  1.0593
  488THF     H5 9336   3.687   1.981   5.173  0.4967 -1.1939  2.1301
  488THF     H6 9337   4.038   2.124   5.210  1.9121 -1.3548 -0.3732
  488THF     H7 9338   4.007   2.109   5.379  0.1702 -1.1293 -0.2776
  488THF     C8 9339   3.995   1.923   5.268  0.7489  0.5878 -0.2140
  488THF     C9 9340   3.880   1.867   5.182 -0.2432  0.0553  0.0245
  488THF    H10 9341   3.980   1.880   5.367  0.8123  0.3541 -0.3053
  488THF    H11 9342   4.093   1.907   5.224  1.0834 -0.3812  0.8226
  488THF    H12 9343   3.923   1.822   5.092 -0.8159  0.5920 -0.5216
  488THF    H13 9344   3.831   1.794   5.247  0.0456 -0.3692 -0.2242
  489THF     O1 9345   3.980   1.522   2.909 -0.0668 -0.1642  0.0643
  489THF     C2 9346   3.980   1.426   2.799 -0.3252 -0.1138 -0.3410
  489THF     C3 9347   3.892   1.627   2.874 -0.6337 -0.7106  0.3127
  489THF     H4 9348   4.022   1.329   2.826  1.4526  0.1202 -2.0878
  489THF     H5 9349   4.047   1.483   2.736  1.0861 -1.2956  0.0404
  489THF     H6 9350   3.860   1.691   2.956  1.7566  0.4037  0.4623
  489THF     H7 9351   3.950   1.690   2.807  0.3331 -0.6011  1.2322
  489THF     C8 9352   3.774   1.559   2.809  0.1028  0.0944 -0.3793
  489THF     C9 9353   3.841   1.437   2.743  0.7913 -0.3581  0.0903
  489THF    H10 9354   3.717   1.619   2.738 -1.2427 -0.4175  0.2348
  489THF    H11 9355   3.702   1.517   2.878 -1.1167  0.3969 -1.4309
  489THF    H12 9356   3.784   1.346   2.761  0.0695 -0.1011 -0.8495
  489THF    H13 9357   3.860   1.446   2.636 -0.5121  0.7857 -0.0687
  490THF     O1 9358   0.383   0.688   1.993 -0.6836  0.0229  0.2958
  490THF     C2 9359   0.367   0.751   2.116  0.4659 -0.0974 -0.7054
  490THF     C3 9360   0.271   0.595   1.954 -0.8906 -0.0350  0.6095
  490THF     H4 9361   0.308   0.842   2.108  0.1167 -0.2885 -0.3707
  490THF     H5 9362   0.463   0.782   2.155 -0.1597 -0.9456  1.7007
  490THF     H6 9363   0.199   0.649   1.893  0.7336 -1.1057 -2.4323
  490THF     H7 9364   0.299   0.507   1.897  0.5591  0.0772  1.1120
  490THF     C8 9365   0.208   0.568   2.090  1.1015  0.0960 -0.4788
  490THF     C9 9366   0.294   0.639   2.189  0.3380  0.2285  0.2430
  490THF    H10 9367   0.171   0.467   2.106 -1.6385  1.0875  0.0010
  490THF    H11 9368   0.113   0.622   2.089  0.0831 -1.5429  1.2346
  490THF    H12 9369   0.235   0.680   2.271  1.5775  0.4224  1.0617
  490THF    H13 9370   0.370   0.574   2.232 -0.6463 -1.9554 -1.1214
  491THF     O1 9371   0.173   1.444   5.392  0.4181  0.0333  0.1116
  491THF     C2 9372   0.140   1.388   5.264  0.5394 -0.3348 -0.1033
  491THF     C3 9373   0.071   1.528   5.444  0.1538  0.3180 -0.3830
  491THF     H4 9374   0.188   1.292   5.241  0.4024 -0.1245 -1.3233
  491THF     H5 9375   0.175   1.465   5.196 -2.3534 -0.7808 -2.2846
  491THF     H6 9376   0.074   1.524   5.553 -0.5504 -1.0459 -0.3885
  491THF     H7 9377   0.081   1.633   5.417 -1.4452  0.9095  1.1121
  491THF     C8 9378  -0.058   1.474   5.370 -0.2827 -0.5348 -0.5619
  491THF     C9 9379  -0.004   1.368   5.279 -0.1989 -0.2956  0.2800
  491THF    H10 9380  -0.107   1.555   5.316 -0.7057  1.4980  2.5617
  491THF    H11 9381  -0.120   1.427   5.447  1.3850 -0.0848  1.1266
  491THF    H12 9382  -0.039   1.278   5.329 -2.9504 -0.1045 -1.0859
  491THF    H13 9383  -0.044   1.376   5.178  0.5048  2.3861  0.1394
  492THF     O1 9384   0.227   2.599   5.157 -0.1591  0.4737  0.2754
  492THF     C2 9385   0.283   2.471   5.179  0.1864  0.9653  0.5136
  492THF     C3 9386   0.284   2.695   5.243 -1.0543  0.3975  0.6481
  492THF     H4 9387   0.335   2.449   5.085 -0.8727  4.4882 -1.0649
  492THF     H5 9388   0.209   2.392   5.190  0.7392 -0.1340 -2.4933
  492THF     H6 9389   0.376   2.736   5.202 -0.3851 -1.1988  0.4788
  492THF     H7 9390   0.221   2.783   5.260 -0.1471  1.5806 -1.7740
  492THF     C8 9391   0.329   2.617   5.371  0.1270  0.3736 -0.1541
  492THF     C9 9392   0.377   2.485   5.298 -0.4900 -0.4113  0.4095
  492THF    H10 9393   0.236   2.600   5.424 -1.0085  1.6203 -1.6638
  492THF    H11 9394   0.409   2.664   5.429 -0.1557 -1.0781  1.5123
  492THF    H12 9395   0.477   2.511   5.261  0.2612 -2.2966  1.0064
  492THF    H13 9396   0.387   2.398   5.363 -1.5477 -0.0828  1.0291
  493THF     O1 9397   3.340   0.031   0.997 -0.0857  0.2697  0.5444
  493THF     C2 9398   3.218  -0.035   1.019  0.2024 -0.2920  0.1713
  493THF     C3 9399   3.334   0.142   1.096 -0.2210 -0.2381  0.0449
  493THF     H4 9400   3.245  -0.105   1.098  0.6647  0.2306  0.4842
  493THF     H5 9401   3.194  -0.084   0.924  2.5641 -0.5495 -0.3628
  493THF     H6 9402   3.398   0.120   1.182  0.6228  0.1444 -0.4796
  493THF     H7 9403   3.377   0.236   1.061 -1.9841  2.0363  3.4182
  493THF     C8 9404   3.189   0.167   1.147  0.0153 -0.1885 -0.0418
  493THF     C9 9405   3.115   0.063   1.067  0.2471 -0.0498  0.0915
  493THF    H10 9406   3.154   0.269   1.132  1.8379  0.5341  0.3058
  493THF    H11 9407   3.185   0.135   1.251  1.4744  0.7064  0.3130
  493THF    H12 9408   3.026   0.027   1.118  1.0613  1.1218  2.5215
  493THF    H13 9409   3.088   0.117   0.977  2.4659  2.2450  0.6688
  494THF     O1 9410   3.979   2.656   2.852 -0.0717  0.0209  0.3708
  494THF     C2 9411   3.852   2.674   2.913 -0.4215  0.2948 -0.5435
  494THF     C3 9412   3.954   2.669   2.713 -0.2119 -0.0624  0.0700
  494THF     H4 9413   3.879   2.726   3.005 -0.2998 -1.5782  0.5259
  494THF     H5 9414   3.813   2.580   2.952 -0.8429  0.9690  0.6953
  494THF     H6 9415   4.041   2.682   2.649 -0.6308 -1.5303 -0.8433
  494THF     H7 9416   3.905   2.575   2.686 -1.3518  0.2441  0.9661
  494THF     C8 9417   3.857   2.774   2.699  0.5698 -0.5076 -0.3257
  494THF     C9 9418   3.762   2.756   2.824  0.6821  0.1698  0.1546
  494THF    H10 9419   3.790   2.766   2.614 -2.1606  3.9999  1.0752
  494THF    H11 9420   3.896   2.875   2.696  0.9833 -0.6305  0.5449
  494THF    H12 9421   3.729   2.852   2.863  1.8046  0.2452  0.9582
  494THF    H13 9422   3.667   2.705   2.804  0.3696  0.6506  0.3816
  495THF     O1 9423   0.868   4.941   4.436  0.0477  0.3910  0.1770
  495THF     C2 9424   0.937   4.922   4.311  0.1910 -0.7316  0.1690
  495THF     C3 9425   0.728   4.926   4.430 -0.0245 -0.3944  0.1415
  495THF     H4 9426   0.952   4.814   4.298 -0.2377 -0.7394 -0.2881
  495THF     H5 9427   1.034   4.970   4.296  1.6368 -3.2443  0.6812
  495THF     H6 9428   0.697   4.833   4.478 -1.5103 -0.7379 -1.3902
  495THF     H7 9429   0.689   5.015   4.479  1.2082  0.3806 -0.2204
  495THF     C8 9430   0.703   4.903   4.277 -0.0931  0.2704 -0.2193
  495THF     C9 9431   0.826   4.952   4.211  0.1950 -0.0231  0.5354
  495THF    H10 9432   0.614   4.956   4.242 -0.1313 -0.0360 -0.5902
  495THF    H11 9433   0.685   4.797   4.261 -2.6015  0.4785  0.6696
  495THF    H12 9434   0.848   4.912   4.111 -0.2713  1.4286 -0.1790
  495THF    H13 9435   0.804   5.056   4.188  1.1849  0.2224  0.6677
  496THF     O1 9436   0.127   2.826   2.997  0.3620  0.0919  0.0786
  496THF     C2 9437   0.179   2.956   2.982 -0.1311 -0.0528 -0.8599
  496THF     C3 9438   0.156   2.787   3.128  1.4626 -0.0421 -0.1183
  496THF     H4 9439   0.107   3.027   3.023 -0.3824 -0.0421 -1.3081
  496THF     H5 9440   0.189   2.977   2.875 -4.1066  2.6616 -0.9275
  496THF     H6 9441   0.106   2.852   3.200 -0.5900 -0.2808 -1.2570
  496THF     H7 9442   0.126   2.691   3.169  0.1944 -0.7760 -2.5680
  496THF     C8 9443   0.300   2.822   3.131 -0.8557  0.1448 -0.0328
  496THF     C9 9444   0.313   2.951   3.059  0.2274 -0.2334 -0.6644
  496THF    H10 9445   0.346   2.736   3.081 -0.7461 -0.6718  1.3904
  496THF    H11 9446   0.347   2.830   3.229  0.4920  0.3567 -0.6694
  496THF    H12 9447   0.321   3.038   3.124  0.0856 -0.1087 -0.8144
  496THF    H13 9448   0.403   2.939   2.998  0.4820  0.3911 -0.4163
  497THF     O1 9449   2.282   1.001   0.504 -0.5306  0.3974  0.1500
  497THF     C2 9450   2.200   1.116   0.520  0.0033 -0.3331 -0.5233
  497THF     C3 9451   2.221   0.921   0.401  0.1244 -0.5857  0.2129
  497THF     H4 9452   2.251   1.187   0.454 -1.5260 -0.1952 -1.5948
  497THF     H5 9453   2.221   1.156   0.619 -0.5002 -0.3510 -0.4077
  497THF     H6 9454   2.289   0.901   0.318  1.5603 -3.4828  1.9144
  497THF     H7 9455   2.213   0.822   0.445  1.3802  0.0788  2.0444
  497THF     C8 9456   2.088   0.986   0.363  0.0178 -1.0306  0.1885
  497THF     C9 9457   2.060   1.067   0.489  0.1179 -0.0088 -0.2636
  497THF    H10 9458   2.010   0.915   0.337 -0.2122  0.1641 -2.6953
  497THF    H11 9459   2.109   1.047   0.276 -0.8447 -0.8213  0.1182
  497THF    H12 9460   1.996   1.150   0.461  1.0578  0.8832  0.1680
  497THF    H13 9461   2.007   1.013   0.567  0.2827  0.4997  0.2040
  498THF     O1 9462   2.814   3.369   0.182  0.1958 -0.4140  0.3651
  498THF     C2 9463   2.690   3.316   0.125 -0.6015 -0.4658  0.2247
  498THF     C3 9464   2.810   3.348   0.320 -0.0026 -0.2056 -0.4082
  498THF     H4 9465   2.717   3.224   0.073  0.2396  0.1295 -0.4226
  498THF     H5 9466   2.662   3.391   0.050 -0.7773 -0.4203  0.3371
  498THF     H6 9467   2.838   3.242   0.325  0.5579 -0.1669 -2.0926
  498THF     H7 9468   2.874   3.403   0.389  0.7482 -0.9360 -0.4938
  498THF     C8 9469   2.660   3.368   0.348 -0.4315  0.3324  0.3196
  498THF     C9 9470   2.584   3.300   0.233 -0.2410  0.8341 -0.1806
  498THF    H10 9471   2.634   3.471   0.322 -0.9290 -0.2647 -1.7231
  498THF    H11 9472   2.644   3.343   0.453  0.0196 -0.6966  0.1491
  498THF    H12 9473   2.551   3.203   0.269 -1.7177  0.9024 -1.2965
  498THF    H13 9474   2.490   3.340   0.194 -1.2765 -1.2291  0.0866
  499THF     O1 9475   5.148   4.066   4.911  0.0978 -0.0069  0.1637
  499THF     C2 9476   5.180   4.196   4.966 -0.0239 -0.2281  0.5526
  499THF     C3 9477   5.091   3.981   5.004  0.7079 -0.2774  0.3342
  499THF     H4 9478   5.176   4.274   4.890  2.2487 -1.1835 -0.6770
  499THF     H5 9479   5.282   4.207   5.004 -0.1452 -1.1409  1.1830
  499THF     H6 9480   5.041   3.891   4.967 -2.0066  2.1235 -2.3813
  499THF     H7 9481   5.170   3.959   5.076  0.1408 -1.2009  0.7044
  499THF     C8 9482   4.999   4.077   5.083 -0.8033  0.1687 -0.2979
  499THF     C9 9483   5.076   4.211   5.077 -0.6224 -0.1334  0.1685
  499THF    H10 9484   4.984   4.046   5.187  2.1978 -3.7140 -0.8072
  499THF    H11 9485   4.911   4.097   5.023 -0.8287  2.6686  0.4430
  499THF    H12 9486   5.005   4.292   5.059 -0.8510 -0.3465  0.1018
  499THF    H13 9487   5.121   4.241   5.172 -0.5119 -0.7746  0.3225
  500THF     O1 9488   3.570   1.591   5.448  0.2561  0.4844  0.0606
  500THF     C2 9489   3.692   1.526   5.444 -0.0089  0.2524  0.1492
  500THF     C3 9490   3.523   1.579   5.583 -0.5490  0.0231  0.4134
  500THF     H4 9491   3.738   1.564   5.353 -2.3420 -0.2916 -1.3409
  500THF     H5 9492   3.661   1.422   5.434  1.9055 -0.2007 -1.8077
  500THF     H6 9493   3.440   1.645   5.607 -1.0431 -0.1208 -0.8209
  500THF     H7 9494   3.486   1.477   5.596 -0.7798  0.4022  3.3535
  500THF     C8 9495   3.648   1.612   5.663  0.2624  0.0300  0.2899
  500THF     C9 9496   3.761   1.573   5.566  0.0321 -0.1583 -1.0487
  500THF    H10 9497   3.644   1.543   5.748 -0.7337 -0.1186  0.1350
  500THF    H11 9498   3.650   1.715   5.698  1.2950  0.4645 -0.9939
  500THF    H12 9499   3.825   1.659   5.547  0.2203  0.5407  2.1896
  500THF    H13 9500   3.831   1.496   5.598 -1.6439 -2.6157 -2.9255
  501THF     O1 9501   0.394   5.295   2.880 -0.1899 -0.0190 -0.0573
  501THF     C2 9502   0.300   5.311   2.985  0.0573 -0.7865 -0.3897
  501THF     C3 9503   0.373   5.380   2.772  0.2820  0.2750  0.1813
  501THF     H4 9504   0.341   5.388   3.050 -1.0497 -0.0133 -0.5640
  501THF     H5 9505   0.294   5.219   3.044  0.6253  0.3372  1.4806
  501THF     H6 9506   0.449   5.458   2.777  1.0345 -0.4487  0.2556
  501THF     H7 9507   0.377   5.318   2.682 -1.1750 -1.6377  1.3522
  501THF     C8 9508   0.233   5.444   2.805 -0.7466 -0.2930 -0.4535
  501THF     C9 9509   0.174   5.342   2.907 -0.2737  0.1619  0.0636
  501THF    H10 9510   0.176   5.463   2.714 -1.3172  3.9557  0.5482
  501THF    H11 9511   0.250   5.540   2.855  0.8139 -1.2233  0.8904
  501THF    H12 9512   0.085   5.384   2.955 -0.5432 -2.7793  2.4530
  501THF    H13 9513   0.145   5.250   2.854  0.8795  0.0502 -0.3948
  502THF     O1 9514   5.325   5.138   1.756  0.1696  0.4262  0.3514
  502THF     C2 9515   5.243   5.197   1.859 -0.5009  0.2163 -0.4220
  502THF     C3 9516   5.302   5.225   1.642 -0.2678  0.1365  0.2058
  502THF     H4 9517   5.275   5.298   1.886  0.8169  0.3054 -2.1331
  502THF     H5 9518   5.237   5.141   1.953 -2.0656  0.9580 -0.0498
  502THF     H6 9519   5.368   5.311   1.650 -1.5212  1.0969  0.5769
  502THF     H7 9520   5.320   5.183   1.543 -2.2665  0.5695 -0.3880
  502THF     C8 9521   5.158   5.278   1.651  0.8051 -0.0654 -0.7548
  502THF     C9 9522   5.110   5.234   1.793  0.2647  0.8082  0.0094
  502THF    H10 9523   5.093   5.245   1.571 -0.9533  1.4720 -0.0357
  502THF    H11 9524   5.168   5.386   1.635 -2.4062  0.4101 -0.3483
  502THF    H12 9525   5.063   5.318   1.844  1.1045  0.2084  1.8296
  502THF    H13 9526   5.041   5.150   1.785  2.0066 -0.7227  0.4414
  503THF     O1 9527   4.246   4.479   1.963 -0.1340 -0.4519 -0.3923
  503THF     C2 9528   4.363   4.441   2.033  0.6056  0.6622  0.1392
  503THF     C3 9529   4.268   4.614   1.908  0.2659  0.1178 -0.1239
  503THF     H4 9530   4.393   4.340   2.006 -0.8835 -0.1120  1.2349
  503THF     H5 9531   4.342   4.458   2.139 -0.3341  0.7040 -0.0432
  503THF     H6 9532   4.276   4.603   1.800  0.5309 -0.2957 -0.0635
  503THF     H7 9533   4.185   4.679   1.933  0.9267  0.8201  0.3053
  503THF     C8 9534   4.397   4.666   1.967  0.5056  0.5466  0.3308
  503THF     C9 9535   4.476   4.545   1.996 -0.0802 -0.2207 -0.8440
  503THF    H10 9536   4.382   4.711   2.066  1.3126  0.1078  0.6545
  503THF    H11 9537   4.449   4.726   1.892  1.3020 -1.9473 -1.2225
  503THF    H12 9538   4.541   4.511   1.915  0.1426 -2.2301  0.1188
  503THF    H13 9539   4.532   4.547   2.089 -0.0701 -4.3700 -0.5740
  504THF     O1 9540   4.598   5.487   1.763 -0.3610  0.1346 -0.1768
  504THF     C2 9541   4.706   5.414   1.813  0.0685 -0.7638 -0.6286
  504THF     C3 9542   4.554   5.574   1.868 -0.2674  0.3666 -0.0938
  504THF     H4 9543   4.795   5.478   1.815 -0.4918  0.0212  0.1193
  504THF     H5 9544   4.728   5.327   1.752 -0.1394 -0.8164 -0.6287
  504THF     H6 9545   4.608   5.668   1.863  3.2538 -1.4729  0.3865
  504THF     H7 9546   4.448   5.591   1.851 -0.1302  0.6526 -0.6786
  504THF     C8 9547   4.596   5.503   1.999 -0.2574 -0.3046 -0.7508
  504THF     C9 9548   4.667   5.378   1.957 -0.6649  0.4662 -0.0793
  504THF    H10 9549   4.517   5.474   2.069 -1.1709  2.4596 -0.5143
  504THF    H11 9550   4.668   5.567   2.049 -0.5133 -1.1616  0.7577
  504THF    H12 9551   4.765   5.353   1.997 -1.0486  1.0783  1.3009
  504THF    H13 9552   4.601   5.291   1.963  0.1937 -0.3389 -1.6405
  505THF     O1 9553   3.329   4.294   2.769 -0.2413 -0.3514 -0.1453
  505THF     C2 9554   3.350   4.343   2.641 -0.0816 -0.1382 -0.2672
  505THF     C3 9555   3.299   4.157   2.748  0.1260  0.3893  0.3425
  505THF     H4 9556   3.453   4.380   2.633 -0.3330  0.2862 -2.0823
  505THF     H5 9557   3.279   4.424   2.623  1.7509  1.2116 -1.9289
  505THF     H6 9558   3.391   4.101   2.768 -0.9413 -2.0961 -1.1632
  505THF     H7 9559   3.246   4.110   2.831  1.7751 -2.8605 -0.2631
  505THF     C8 9560   3.242   4.137   2.607  0.6938  0.4229 -0.6047
  505THF     C9 9561   3.335   4.234   2.533  0.3348  1.4345  0.9341
  505THF    H10 9562   3.136   4.162   2.605  0.3665 -0.7938 -0.0047
  505THF    H11 9563   3.255   4.038   2.562 -0.7799  0.1323 -0.4516
  505THF    H12 9564   3.437   4.202   2.512  0.2399  1.9508 -0.3902
  505THF    H13 9565   3.295   4.275   2.440 -1.0536 -1.3103  0.2168
  506THF     O1 9566   4.110   4.714   4.006  0.2970 -0.7071 -0.3522
  506THF     C2 9567   4.077   4.848   4.051  0.6910  0.7278 -0.0881
  506THF     C3 9568   4.179   4.638   4.105  0.1920 -0.2213  0.4930
  506THF     H4 9569   3.985   4.891   4.011  1.2050  1.6073 -0.3397
  506THF     H5 9570   4.155   4.915   4.013  1.7551  0.6007  1.7473
  506THF     H6 9571   4.121   4.551   4.136 -1.2120  0.4842 -0.0673
  506THF     H7 9572   4.265   4.587   4.063  0.1780  0.6292 -0.6337
  506THF     C8 9573   4.205   4.728   4.226  0.6425 -0.3951  0.0799
  506THF     C9 9574   4.091   4.839   4.199 -0.2434  0.2729 -0.5586
  506THF    H10 9575   4.307   4.761   4.209  1.5976 -3.0065  0.1858
  506THF    H11 9576   4.218   4.673   4.320  0.9761  0.0451  0.2932
  506THF    H12 9577   4.001   4.806   4.252 -0.1193  0.4354 -0.2427
  506THF    H13 9578   4.112   4.931   4.252  1.4064 -0.6603  0.5200
  507THF     O1 9579   5.399   2.913   4.097 -0.1524 -0.0627 -0.1866
  507THF     C2 9580   5.447   2.773   4.100  0.9010  0.3899 -0.3064
  507THF     C3 9581   5.276   2.903   4.022 -0.4722  0.4356  0.5753
  507THF     H4 9582   5.460   2.744   4.204 -0.5624 -1.0882 -0.4991
  507THF     H5 9583   5.541   2.757   4.047  0.4331 -2.4284 -0.4001
  507THF     H6 9584   5.207   2.985   4.042  2.0634  2.6504  0.7919
  507THF     H7 9585   5.301   2.913   3.916  2.3584 -2.4497  0.8069
  507THF     C8 9586   5.219   2.764   4.043 -0.3035 -0.0315 -0.2363
  507THF     C9 9587   5.337   2.678   4.051  0.2624 -0.0839 -0.4016
  507THF    H10 9588   5.149   2.733   3.965 -0.7768  1.9942 -0.6744
  507THF    H11 9589   5.171   2.758   4.140 -2.2002  1.7026 -0.9788
  507THF    H12 9590   5.323   2.599   4.125  2.1701 -0.0192  0.0878
  507THF    H13 9591   5.365   2.631   3.956  0.8468 -0.5682  0.0026
  508THF     O1 9592   1.395   4.730   1.750  0.4361 -0.5152 -0.5109
  508THF     C2 9593   1.392   4.663   1.878  0.3683 -0.1095  0.2720
  508THF     C3 9594   1.411   4.639   1.646 -0.3830 -0.3276  0.0153
  508THF     H4 9595   1.303   4.701   1.928  0.4880 -3.5644  3.5338
  508THF     H5 9596   1.486   4.688   1.927  2.2169 -1.7480 -2.1607
  508THF     H6 9597   1.309   4.623   1.613 -0.2671  1.5392 -1.4325
  508THF     H7 9598   1.475   4.685   1.570  0.4421  1.1817  1.5426
  508THF     C8 9599   1.464   4.514   1.711  0.0530  0.1474 -0.2175
  508THF     C9 9600   1.398   4.517   1.851  0.1372  0.3847 -0.0821
  508THF    H10 9601   1.572   4.520   1.725 -0.0540  0.2325  0.6263
  508THF    H11 9602   1.441   4.426   1.651  0.1643 -0.0146 -0.0257
  508THF    H12 9603   1.301   4.467   1.842  0.7950 -0.9246 -0.0836
  508THF    H13 9604   1.461   4.459   1.918  1.2875  1.6405 -0.0346
  509THF     O1 9605   2.452   1.925   0.483  0.3434 -0.2475  0.2918
  509THF     C2 9606   2.371   2.027   0.545  0.2034 -0.3683 -1.0599
  509THF     C3 9607   2.587   1.952   0.495 -0.2986 -0.6042 -0.1212
  509THF     H4 9608   2.359   2.011   0.652 -0.8839  1.4178 -0.8757
  509THF     H5 9609   2.269   2.033   0.507 -0.0717  1.6860 -0.1326
  509THF     H6 9610   2.620   1.929   0.596 -1.3964 -2.2712 -0.0922
  509THF     H7 9611   2.655   1.907   0.422  0.5412  1.4301 -0.6534
  509THF     C8 9612   2.595   2.096   0.474 -0.3701 -0.9084  0.5001
  509THF     C9 9613   2.457   2.149   0.528 -0.3801 -0.0918  0.6097
  509THF    H10 9614   2.613   2.112   0.368 -0.4987  0.2799  0.6461
  509THF    H11 9615   2.668   2.146   0.538 -2.0840  1.5823  0.6380
  509THF    H12 9616   2.472   2.201   0.622  0.6791 -1.9690  1.5359
  509THF    H13 9617   2.419   2.226   0.460  0.0715 -0.8663 -0.5598
  510THF     O1 9618   1.934   1.434   3.719  0.2460  0.5725  0.1244
  510THF     C2 9619   1.936   1.538   3.621  0.4051  0.1963 -0.2282
  510THF     C3 9620   1.943   1.495   3.844 -0.1793  0.3171 -0.2023
  510THF     H4 9621   1.850   1.544   3.555 -1.0034 -1.1447  1.3892
  510THF     H5 9622   2.015   1.531   3.546  1.3722  0.2317  0.7609
  510THF     H6 9623   1.843   1.496   3.888  0.2784  2.1155  0.9033
  510THF     H7 9624   2.005   1.432   3.907  0.3631  0.9449 -0.0986
  510THF     C8 9625   2.000   1.635   3.836 -0.2787  0.2218  0.4509
  510THF     C9 9626   1.944   1.673   3.697 -1.1494 -0.0935  0.0644
  510THF    H10 9627   2.108   1.626   3.824 -0.7405 -5.0689 -2.4917
  510THF    H11 9628   1.973   1.711   3.910 -0.4641  1.5675 -0.9458
  510THF    H12 9629   1.842   1.712   3.700 -1.1582 -0.0132 -0.9470
  510THF    H13 9630   2.016   1.742   3.652  0.5682 -0.0756  2.6613
  511THF     O1 9631   2.764   4.325   1.419 -0.3160  0.1067  0.1218
  511THF     C2 9632   2.664   4.243   1.357  0.5009  0.4249 -0.5768
  511THF     C3 9633   2.789   4.281   1.550  0.8566 -0.0008 -0.9386
  511THF     H4 9634   2.667   4.253   1.249  1.1052 -0.1724 -0.6227
  511THF     H5 9635   2.563   4.274   1.385  0.7267  0.0114  0.7874
  511THF     H6 9636   2.873   4.342   1.583 -0.9047  2.7590 -1.2410
  511THF     H7 9637   2.699   4.295   1.611  1.9290  0.9757  0.4894
  511THF     C8 9638   2.812   4.129   1.516 -0.2329 -0.5085  0.3667
  511THF     C9 9639   2.704   4.104   1.406 -0.1917 -0.1653 -0.0682
  511THF    H10 9640   2.812   4.057   1.598 -1.5508 -0.6767  0.2365
  511THF    H11 9641   2.908   4.124   1.464  0.3963 -0.7631  1.4978
  511THF    H12 9642   2.752   4.041   1.331  0.4373  0.5312 -0.2592
  511THF    H13 9643   2.615   4.059   1.450 -0.8976  1.1182 -0.1281
  512THF     O1 9644   0.152   2.083   2.474  0.4259 -0.7199 -0.1296
  512THF     C2 9645   0.105   2.222   2.506  0.6997  0.0729 -0.6496
  512THF     C3 9646   0.271   2.077   2.550  0.6743 -0.2128  0.2649
  512THF     H4 9647   0.076   2.222   2.610  0.5323 -0.9632 -0.6874
  512THF     H5 9648   0.026   2.251   2.436  0.6418 -0.4432 -0.8020
  512THF     H6 9649   0.251   2.068   2.657 -1.8505 -2.8947 -0.2967
  512THF     H7 9650   0.325   1.986   2.525  0.7882 -0.7773  2.3279
  512THF     C8 9651   0.343   2.200   2.511  1.0297  0.6867 -0.2762
  512THF     C9 9652   0.234   2.303   2.487 -0.1957 -0.3994 -0.3061
  512THF    H10 9653   0.388   2.189   2.412 -2.3007 -0.0624 -1.8816
  512THF    H11 9654   0.420   2.217   2.586  1.2067  2.3651 -0.8085
  512THF    H12 9655   0.238   2.386   2.557 -1.6148  0.2542 -0.9567
  512THF    H13 9656   0.241   2.350   2.389  0.8158 -1.6799 -0.8871
  513THF     O1 9657   1.677   3.483   2.998  0.6332 -0.1323 -0.0833
  513THF     C2 9658   1.793   3.537   3.069 -0.1522  0.0529 -0.0760
  513THF     C3 9659   1.723   3.364   2.942  0.0850 -0.0582  0.3722
  513THF     H4 9660   1.749   3.595   3.150  3.0327  0.2469  1.6650
  513THF     H5 9661   1.861   3.602   3.014  1.2827 -0.2829  1.2536
  513THF     H6 9662   1.639   3.296   2.929 -0.5240  0.6189  0.6566
  513THF     H7 9663   1.770   3.395   2.848 -0.8432 -0.4551 -0.2381
  513THF     C8 9664   1.813   3.305   3.047  0.5439  0.7959  0.5024
  513THF     C9 9665   1.863   3.418   3.131  0.0559 -0.9857  0.4792
  513THF    H10 9666   1.896   3.248   3.005  0.0110  0.7161 -0.4799
  513THF    H11 9667   1.761   3.236   3.113  1.4635 -2.7868 -2.1797
  513THF    H12 9668   1.844   3.411   3.238  0.2196 -1.5097  0.4785
  513THF    H13 9669   1.969   3.438   3.115 -0.3540  1.2491  0.3457
  514THF     O1 9670   3.160   1.372   0.301  0.2523 -0.1838  0.7702
  514THF     C2 9671   3.232   1.492   0.316 -0.0098 -0.0258 -1.1862
  514THF     C3 9672   3.059   1.359   0.405 -0.5996 -0.1225  0.4314
  514THF     H4 9673   3.222   1.563   0.234 -0.3474 -0.1490 -1.2525
  514THF     H5 9674   3.334   1.456   0.333 -0.4168 -0.7345 -0.1366
  514THF     H6 9675   2.962   1.394   0.370 -1.5920 -0.6167  2.5082
  514THF     H7 9676   3.047   1.255   0.433 -1.3929 -0.1368  0.0520
  514THF     C8 9677   3.116   1.437   0.526  0.1228  0.2636  0.1380
  514THF     C9 9678   3.183   1.553   0.448  0.4948  0.1079 -0.2904
  514THF    H10 9679   3.188   1.387   0.590  0.6323  1.2481  0.3483
  514THF    H11 9680   3.031   1.482   0.578 -0.6506 -0.7323 -0.2448
  514THF    H12 9681   3.109   1.631   0.432  2.5494  1.8247 -2.0264
  514THF    H13 9682   3.262   1.588   0.514  0.1607  0.7101 -0.2065
  515THF     O1 9683   1.238   2.453   3.732  0.4113  0.1717  0.5399
  515THF     C2 9684   1.211   2.311   3.723  0.0840 -1.0117 -0.8117
  515THF     C3 9685   1.284   2.493   3.602 -0.0501 -0.0024  0.0180
  515THF     H4 9686   1.132   2.287   3.794  0.7828  0.8215  0.6597
  515THF     H5 9687   1.301   2.251   3.732  1.1209  0.5245 -0.5216
  515THF     H6 9688   1.232   2.575   3.553  1.0606 -0.5405 -2.1532
  515THF     H7 9689   1.389   2.520   3.612 -0.0000 -0.3976  0.6413
  515THF     C8 9690   1.262   2.366   3.515  0.1637 -0.4367 -0.5282
  515THF     C9 9691   1.156   2.289   3.586 -0.0492 -0.0910 -0.3927
  515THF    H10 9692   1.362   2.324   3.501  1.6464  3.1552 -2.1605
  515THF    H11 9693   1.232   2.397   3.415  0.2098  0.5244 -0.2589
  515THF    H12 9694   1.061   2.340   3.572 -1.7261 -2.1467  2.3103
  515THF    H13 9695   1.146   2.186   3.552 -1.0180 -0.3109  0.4997
  516THF     O1 9696   4.116   2.060   4.316  0.3356 -0.1776  0.0901
  516THF     C2 9697   4.155   2.182   4.384  0.0884 -0.5555  0.3501
  516THF     C3 9698   4.199   1.953   4.372 -0.6405 -0.8964 -0.4251
  516THF     H4 9699   4.089   2.195   4.469 -0.3397  0.5782 -0.1448
  516THF     H5 9700   4.146   2.269   4.319  0.3134 -0.0584  0.9765
  516THF     H6 9701   4.171   1.925   4.474  0.4715  0.3843  0.2517
  516THF     H7 9702   4.184   1.869   4.304 -2.9993  0.6768 -2.0399
  516THF     C8 9703   4.334   2.016   4.390  0.5096 -0.4874  0.7934
  516THF     C9 9704   4.297   2.158   4.428 -1.0265  0.6271 -0.1896
  516THF    H10 9705   4.391   2.020   4.297 -1.5093  1.1360 -0.4572
  516THF    H11 9706   4.394   1.970   4.469  1.5232 -0.3477  0.1307
  516THF    H12 9707   4.298   2.171   4.536 -0.8484 -0.7922 -0.0045
  516THF    H13 9708   4.374   2.218   4.379 -0.2673 -1.3206 -1.4983
  517THF     O1 9709   4.181   2.486   5.381 -0.0803  0.3911 -0.4014
  517THF     C2 9710   4.049   2.523   5.402  1.2617  0.1602  0.6611
  517THF     C3 9711   4.246   2.457   5.505 -0.4886  0.0956  0.4279
  517THF     H4 9712   3.996   2.533   5.308 -1.6293  3.5651  2.3731
  517THF     H5 9713   4.057   2.625   5.442  1.2213  1.3570 -2.1756
  517THF     H6 9714   4.301   2.363   5.491 -1.8481 -0.9126  1.4971
  517THF     H7 9715   4.314   2.533   5.544  1.9308 -0.3979 -2.4652
  517THF     C8 9716   4.124   2.421   5.598  0.6913 -1.2645  0.2616
  517THF     C9 9717   3.994   2.436   5.513  0.0552  0.8561 -0.4444
  517THF    H10 9718   4.128   2.493   5.680 -0.7944 -0.3688 -0.4233
  517THF    H11 9719   4.146   2.323   5.642  2.3029 -1.2999 -0.5260
  517THF    H12 9720   3.968   2.338   5.472 -0.0520  1.2617 -1.3574
  517THF    H13 9721   3.908   2.469   5.571  1.0669 -1.1217  2.4143
  518THF     O1 9722   3.937   5.252   5.324  0.2216 -0.2039 -0.5349
  518THF     C2 9723   4.008   5.140   5.375  0.1255  0.8591  0.3826
  518THF     C3 9724   3.938   5.252   5.186 -0.1157  0.3679  0.0823
  518THF     H4 9725   3.936   5.058   5.378  0.3561  0.6623  0.4954
  518THF     H5 9726   4.039   5.153   5.478  0.7904  3.5238 -0.0865
  518THF     H6 9727   3.861   5.180   5.162  0.9667 -0.1111 -2.2295
  518THF     H7 9728   3.909   5.349   5.145  0.0912  0.0383 -0.8721
  518THF     C8 9729   4.076   5.192   5.157  0.0319  0.0161 -0.0528
  518THF     C9 9730   4.100   5.090   5.264 -0.1855  0.1517  0.8448
  518THF    H10 9731   4.162   5.258   5.169 -0.0056 -0.0487  0.6474
  518THF    H11 9732   4.083   5.160   5.053  1.0459  1.3953 -0.4311
  518THF    H12 9733   4.064   4.999   5.215  1.3012  0.1419 -0.3074
  518THF    H13 9734   4.199   5.066   5.303 -0.6619 -1.6017  1.0627
  519THF     O1 9735   3.768   1.728   4.243  0.2274 -0.1797 -0.0634
  519THF     C2 9736   3.661   1.670   4.169  0.8093 -0.6554 -1.0551
  519THF     C3 9737   3.815   1.843   4.168 -0.1421  0.2696 -0.0430
  519THF     H4 9738   3.565   1.716   4.191  0.3459 -2.4746  1.0772
  519THF     H5 9739   3.661   1.565   4.196  0.3656 -0.3339  0.2584
  519THF     H6 9740   3.736   1.918   4.166 -0.9408 -0.5657 -0.1333
  519THF     H7 9741   3.902   1.895   4.209 -0.0115  0.5591 -0.6706
  519THF     C8 9742   3.817   1.784   4.023 -0.2879 -0.3948  0.2587
  519THF     C9 9743   3.694   1.693   4.018 -0.5170 -0.5292 -0.2011
  519THF    H10 9744   3.913   1.736   4.001  0.9185  0.1551  3.8110
  519THF    H11 9745   3.812   1.860   3.945  1.6934 -0.7542 -0.2961
  519THF    H12 9746   3.608   1.737   3.969 -0.8240 -0.0482  0.7409
  519THF    H13 9747   3.707   1.599   3.965 -2.8138 -1.0587  0.0857
  520THF     O1 9748   4.620   1.317   0.136 -0.7681  0.1071  0.5253
  520THF     C2 9749   4.520   1.370   0.048  0.2826 -0.3426  0.7532
  520THF     C3 9750   4.569   1.287   0.261  0.0649  0.1458 -0.2072
  520THF     H4 9751   4.536   1.354  -0.059 -0.0026 -2.3011  0.9740
  520THF     H5 9752   4.504   1.475   0.070  0.6802  0.1326 -1.0986
  520THF     H6 9753   4.612   1.197   0.304  0.3217 -1.1225 -2.9563
  520THF     H7 9754   4.576   1.365   0.337  1.4293 -2.4914  2.5926
  520THF     C8 9755   4.422   1.258   0.238 -0.4293  0.4028 -0.2862
  520THF     C9 9756   4.393   1.303   0.098 -0.1034 -0.2867  0.3825
  520THF    H10 9757   4.365   1.312   0.313 -0.1571  0.4523 -0.1143
  520THF    H11 9758   4.397   1.152   0.240  0.6553  0.1367  1.3837
  520THF    H12 9759   4.380   1.214   0.037  0.2708 -0.3173  0.3416
  520THF    H13 9760   4.306   1.367   0.083 -0.4147 -0.9613 -0.8541
  521THF     O1 9761   4.528   3.299   4.684 -0.3739 -0.6152  0.1312
  521THF     C2 9762   4.564   3.177   4.755  0.2343 -0.0314 -0.9842
  521THF     C3 9763   4.477   3.268   4.557  0.0466 -0.6864  0.6801
  521THF     H4 9764   4.469   3.131   4.781  0.2384  0.8379  0.6813
  521THF     H5 9765   4.629   3.190   4.842 -0.6471  0.7812 -0.4382
  521THF     H6 9766   4.369   3.279   4.558  0.0684 -0.3968  1.8994
  521THF     H7 9767   4.516   3.346   4.493 -1.3203 -0.6448 -0.1349
  521THF     C8 9768   4.539   3.135   4.525 -0.9977 -0.1455  0.7758
  521THF     C9 9769   4.627   3.102   4.641 -0.6508  0.0155 -0.2807
  521THF    H10 9770   4.595   3.142   4.431 -1.5911 -1.5614  0.2867
  521THF    H11 9771   4.460   3.061   4.513  1.3010 -2.4391 -1.5444
  521THF    H12 9772   4.637   2.995   4.659 -0.0972  0.5495  3.4966
  521THF    H13 9773   4.722   3.153   4.624 -0.5033  0.3218  1.2728
  522THF     O1 9774   2.836   4.696   4.002  0.1110 -1.1463  0.1664
  522THF     C2 9775   2.865   4.819   4.066 -0.1442 -0.5655 -0.0508
  522THF     C3 9776   2.735   4.632   4.080 -0.2283 -0.4629 -0.0895
  522THF     H4 9777   2.790   4.895   4.043  2.1970  1.6581 -0.8556
  522THF     H5 9778   2.962   4.853   4.030 -0.7283  0.0572 -1.0927
  522THF     H6 9779   2.637   4.647   4.035 -0.0752 -1.8157 -0.9180
  522THF     H7 9780   2.754   4.525   4.072  0.5541 -0.3264 -0.1267
  522THF     C8 9781   2.739   4.694   4.216 -0.4008  0.6189  0.2978
  522THF     C9 9782   2.867   4.783   4.214  0.4832  0.6217  0.3573
  522THF    H10 9783   2.752   4.619   4.293 -0.8088  0.3707  0.1277
  522THF    H11 9784   2.642   4.737   4.240 -0.7336  0.1509 -0.1791
  522THF    H12 9785   2.863   4.876   4.272  0.3844  0.2011  1.0312
  522THF    H13 9786   2.953   4.733   4.256 -0.2620 -0.9701  0.0641
  523THF     O1 9787   1.184   0.859   5.143 -0.1504  0.1633 -0.2602
  523THF     C2 9788   1.326   0.852   5.181  0.3572 -0.2224 -0.2959
  523THF     C3 9789   1.152   0.722   5.114  0.1138  0.1996  0.1350
  523THF     H4 9790   1.356   0.943   5.233 -1.1220  0.6012 -0.8278
  523THF     H5 9791   1.385   0.848   5.089 -1.0255 -0.6054 -1.1963
  523THF     H6 9792   1.063   0.689   5.167  1.6774  0.2915  3.0747
  523THF     H7 9793   1.167   0.708   5.007  3.3479 -0.3459  0.5430
  523THF     C8 9794   1.245   0.636   5.188 -0.0555  0.4024 -0.4939
  523THF     C9 9795   1.343   0.717   5.255  0.3047 -0.7382 -0.9591
  523THF    H10 9796   1.303   0.568   5.126  0.0033 -1.2510  1.2684
  523THF    H11 9797   1.194   0.577   5.264  2.4565 -0.4405  0.6426
  523THF    H12 9798   1.317   0.736   5.359 -0.3963  0.0844 -1.2693
  523THF    H13 9799   1.448   0.689   5.250  0.8061  0.9240 -0.3383
  524THF     O1 9800   2.922   0.938   3.142  0.0444  0.3373 -0.3513
  524THF     C2 9801   2.903   0.890   3.014  0.2501  0.3221 -0.3082
  524THF     C3 9802   2.979   1.062   3.131  0.0931  0.2046 -0.5554
  524THF     H4 9803   2.848   0.796   3.008 -0.3634  0.6644 -0.1370
  524THF     H5 9804   2.999   0.872   2.965 -1.3020 -0.8183 -3.2246
  524THF     H6 9805   2.976   1.120   3.224 -0.4357  1.6993 -1.4624
  524THF     H7 9806   3.086   1.058   3.110  0.6842  0.4188  1.9829
  524THF     C8 9807   2.884   1.123   3.032  1.0376 -0.7011  0.3595
  524THF     C9 9808   2.843   1.007   2.936 -0.6784 -0.4898 -0.2713
  524THF    H10 9809   2.921   1.201   2.966  2.0366 -2.0935 -0.8136
  524THF    H11 9810   2.792   1.161   3.075  0.5900  1.3939 -2.2418
  524THF    H12 9811   2.735   1.000   2.918 -0.8169 -0.1983  0.4225
  524THF    H13 9812   2.888   1.015   2.837  0.4908 -0.5227  0.2454
  525THF     O1 9813   4.483   2.883   4.968  0.3002 -0.7070  0.3400
  525THF     C2 9814   4.347   2.864   4.923 -0.4607  0.3709  0.1818
  525THF     C3 9815   4.484   2.986   5.066 -1.1192 -0.0934  0.2887
  525THF     H4 9816   4.345   2.769   4.868  2.7401  0.4303 -0.2178
  525THF     H5 9817   4.318   2.949   4.862 -1.0190  0.0912  0.0513
  525THF     H6 9818   4.579   2.986   5.120 -0.9744  0.3960  0.0345
  525THF     H7 9819   4.461   3.080   5.017  2.2088  0.1459 -1.0546
  525THF     C8 9820   4.388   2.942   5.157  0.2781  0.5463  1.0052
  525THF     C9 9821   4.293   2.856   5.068  0.5711 -0.0145 -0.0917
  525THF    H10 9822   4.333   3.020   5.208  0.3969  0.7349  0.8448
  525THF    H11 9823   4.438   2.884   5.236  0.1258 -1.2536 -0.1499
  525THF    H12 9824   4.295   2.753   5.104 -2.3538 -0.4823 -0.9803
  525THF    H13 9825   4.190   2.889   5.058  0.1068 -1.9136 -2.8921
  526THF     O1 9826   0.552   2.598   3.208  0.5441  0.5959 -0.1634
  526THF     C2 9827   0.678   2.650   3.166  0.7105 -0.2104  0.0214
  526THF     C3 9828   0.536   2.607   3.355 -0.5091 -0.2526  0.1139
  526THF     H4 9829   0.675   2.685   3.063  0.3343  0.0345  0.1127
  526THF     H5 9830   0.749   2.567   3.169  1.3857  0.2727 -1.6059
  526THF     H6 9831   0.441   2.651   3.385  0.5912  1.8621  0.7596
  526THF     H7 9832   0.547   2.513   3.407 -0.2001  0.5725  1.5911
  526THF     C8 9833   0.649   2.701   3.400  0.0686 -0.2253 -0.6654
  526THF     C9 9834   0.708   2.759   3.270 -0.2035 -0.3556 -0.3097
  526THF    H10 9835   0.733   2.653   3.450 -0.0661 -0.9736 -1.1459
  526THF    H11 9836   0.590   2.769   3.461 -2.3654 -0.8690 -2.1969
  526THF    H12 9837   0.649   2.849   3.253  0.1217 -0.1494 -0.3606
  526THF    H13 9838   0.810   2.796   3.265 -0.3159 -0.0689 -0.5163
  527THF     O1 9839   3.536   3.312   3.291  0.0319  0.1002  0.1015
  527THF     C2 9840   3.673   3.328   3.300  0.0532 -0.6763  0.1853
  527THF     C3 9841   3.481   3.344   3.413 -0.8307 -0.1727 -0.4705
  527THF     H4 9842   3.717   3.425   3.275  0.8228 -0.7424  1.2213
  527THF     H5 9843   3.710   3.261   3.223  2.2859  0.8878 -0.2138
  527THF     H6 9844   3.486   3.449   3.439  0.7523  0.0949 -1.7448
  527THF     H7 9845   3.383   3.295   3.411 -0.5411 -0.7696 -2.9097
  527THF     C8 9846   3.573   3.263   3.498  0.5803 -0.0992 -0.9617
  527THF     C9 9847   3.709   3.272   3.439 -0.2733 -1.2133 -0.1027
  527THF    H10 9848   3.523   3.166   3.497  0.7861 -0.2170 -0.1657
  527THF    H11 9849   3.578   3.288   3.604  1.6382 -0.7881 -0.8353
  527THF    H12 9850   3.767   3.346   3.496 -4.0673  0.9268  1.3176
  527THF    H13 9851   3.761   3.178   3.422  0.5736 -0.5422 -1.4450
  528THF     O1 9852   4.578   3.139   5.419 -0.3783  0.2138 -0.1737
  528THF     C2 9853   4.468   3.082   5.498 -0.5582  0.3843 -0.1222
  528THF     C3 9854   4.534   3.263   5.375  0.2166 -0.2812 -0.2885
  528THF     H4 9855   4.495   3.012   5.577 -3.3767  0.0821  0.6823
  528THF     H5 9856   4.394   3.043   5.427 -1.2618 -2.5268  2.0259
  528THF     H6 9857   4.622   3.319   5.343 -0.3062  1.5221  1.2241
  528THF     H7 9858   4.456   3.242   5.302 -1.6684  1.4944  1.0834
  528THF     C8 9859   4.490   3.320   5.510  0.6174 -0.2183  0.3034
  528THF     C9 9860   4.415   3.206   5.569  0.2882 -0.0580  0.4654
  528THF    H10 9861   4.420   3.402   5.497 -0.6870 -1.1504  1.2286
  528THF    H11 9862   4.575   3.345   5.574  0.4339  1.2913 -0.0024
  528THF    H12 9863   4.423   3.210   5.678 -1.6785 -0.8320  0.6778
  528THF    H13 9864   4.317   3.231   5.530  1.8108  2.1104 -2.3355
  529THF     O1 9865   1.254   3.366   3.747  0.4364 -0.0823  0.3693
  529THF     C2 9866   1.213   3.460   3.839  0.0957  0.2736 -0.0232
  529THF     C3 9867   1.339   3.267   3.803  0.3032  0.1141  0.0452
  529THF     H4 9868   1.121   3.421   3.883 -1.4543  1.8926 -1.6925
  529THF     H5 9869   1.180   3.557   3.802  1.8428  0.0663 -2.3289
  529THF     H6 9870   1.290   3.182   3.850  0.4605 -0.8059 -1.4019
  529THF     H7 9871   1.402   3.222   3.726 -1.0920  2.0829 -2.3998
  529THF     C8 9872   1.406   3.341   3.918 -0.4544 -0.4553 -0.0440
  529THF     C9 9873   1.335   3.470   3.936  0.2787  0.0227  0.1616
  529THF    H10 9874   1.506   3.360   3.878  0.3373 -0.4756  1.7788
  529THF    H11 9875   1.409   3.280   4.009 -1.6909 -0.4361  0.0218
  529THF    H12 9876   1.295   3.496   4.034  0.1918 -1.1990  0.4739
  529THF    H13 9877   1.400   3.552   3.905 -0.4656  0.2720 -0.7819
  530THF     O1 9878   0.629   2.663   3.866 -0.2401  0.0110  0.4272
  530THF     C2 9879   0.668   2.646   3.731  0.0558  0.3362 -0.5218
  530THF     C3 9880   0.723   2.587   3.942 -0.0486  1.1155 -0.1616
  530THF     H4 9881   0.623   2.732   3.681 -1.4831  0.1994  0.5492
  530THF     H5 9882   0.624   2.553   3.696 -0.5473  0.0566  0.9307
  530THF     H6 9883   0.705   2.621   4.044  0.4329 -0.3027  0.4140
  530THF     H7 9884   0.701   2.481   3.932 -0.4844  0.9114  2.2436
  530THF     C8 9885   0.858   2.638   3.881  0.5519 -0.7230  0.0171
  530THF     C9 9886   0.819   2.663   3.731 -0.1994  0.2368  0.0744
  530THF    H10 9887   0.936   2.564   3.900  1.7894  0.6334  0.3837
  530THF    H11 9888   0.895   2.732   3.921 -0.0823 -0.0935 -0.8321
  530THF    H12 9889   0.839   2.766   3.705 -2.2057  0.8634  0.8120
  530THF    H13 9890   0.867   2.585   3.672 -0.1766 -1.3168  2.0322
  531THF     O1 9891   5.282   2.353   3.977  0.0492 -0.4508 -0.2399
  531THF     C2 9892   5.330   2.360   3.838 -0.0315  0.0690 -0.2588
  531THF     C3 9893   5.137   2.376   3.975 -0.2580  0.1380 -0.2896
  531THF     H4 9894   5.426   2.309   3.842 -0.4115 -0.6540  0.0494
  531THF     H5 9895   5.351   2.461   3.804  1.8703 -0.3625 -0.4702
  531THF     H6 9896   5.083   2.323   4.053 -0.2111 -1.7861 -1.4966
  531THF     H7 9897   5.133   2.484   3.991  1.2293 -0.1623  2.8807
  531THF     C8 9898   5.093   2.341   3.831  0.1324  0.5272  0.2280
  531THF     C9 9899   5.223   2.302   3.760  0.0353  0.3892 -0.5567
  531THF    H10 9900   5.044   2.432   3.796 -1.2526  0.2154  1.2565
  531THF    H11 9901   5.029   2.254   3.844 -0.9644  1.0890 -1.0753
  531THF    H12 9902   5.242   2.197   3.781  0.4312  0.3300 -1.1612
  531THF    H13 9903   5.235   2.307   3.651 -0.1676 -2.1469 -0.7492
  532THF     O1 9904   2.023   0.792   2.396 -0.4582 -0.4012  0.3657
  532THF     C2 9905   2.131   0.745   2.320  0.7934  0.2234  0.0880
  532THF     C3 9906   1.905   0.738   2.331 -0.1169  0.2360 -0.2021
  532THF     H4 9907   2.135   0.636   2.318  1.1737  0.2527 -1.6386
  532THF     H5 9908   2.225   0.790   2.351  0.1250  0.9699  1.1296
  532THF     H6 9909   1.899   0.629   2.331  0.7221  0.1596  1.6429
  532THF     H7 9910   1.806   0.776   2.357 -0.1714  2.3023 -2.9670
  532THF     C8 9911   1.933   0.786   2.188  0.8962  0.7202  0.1482
  532THF     C9 9912   2.080   0.791   2.181  0.1252 -0.2692  0.1598
  532THF    H10 9913   1.895   0.888   2.183  3.6343  1.7845 -1.1685
  532THF    H11 9914   1.886   0.724   2.112 -0.9041  0.8731  1.0771
  532THF    H12 9915   2.112   0.718   2.106 -0.7402  0.7500 -1.2538
  532THF    H13 9916   2.124   0.887   2.154  2.6657 -1.5137 -0.4580
  533THF     O1 9917   1.858   0.730   1.809  0.6987 -0.0410 -0.6919
  533THF     C2 9918   1.976   0.670   1.776  0.3468  0.1693 -0.5660
  533THF     C3 9919   1.754   0.638   1.855 -0.0351  0.6506 -0.2761
  533THF     H4 9920   2.038   0.688   1.864 -0.7464 -0.1806  0.3009
  533THF     H5 9921   2.018   0.725   1.692 -0.6325 -0.7561 -1.6999
  533THF     H6 9922   1.730   0.660   1.959 -4.0324 -0.6809 -0.7270
  533THF     H7 9923   1.661   0.649   1.799 -0.5729 -1.5974  0.0686
  533THF     C8 9924   1.816   0.497   1.840  1.0468  0.4426  0.3440
  533THF     C9 9925   1.941   0.521   1.748  0.0304 -0.6664  0.2384
  533THF    H10 9926   1.740   0.433   1.795  0.8065  1.6170 -1.0141
  533THF    H11 9927   1.838   0.462   1.940  2.2072 -2.0139 -0.6864
  533THF    H12 9928   2.025   0.456   1.776  1.0137  0.5763  0.2569
  533THF    H13 9929   1.907   0.501   1.646 -0.3665 -1.6044  0.5403
  534THF     O1 9930   0.946   0.144   5.091 -0.0406 -0.4587 -0.2018
  534THF     C2 9931   1.065   0.167   5.013 -0.3683 -0.1606  0.1164
  534THF     C3 9932   0.876   0.271   5.089  0.0789  0.2857 -0.8927
  534THF     H4 9933   1.031   0.138   4.914 -0.9036 -1.7971  0.7315
  534THF     H5 9934   1.140   0.093   5.044 -1.7786 -2.2730 -1.2231
  534THF     H6 9935   0.814   0.272   5.000  0.2347  0.6819 -0.9949
  534THF     H7 9936   0.827   0.292   5.184 -0.3447 -1.8901 -0.5746
  534THF     C8 9937   0.985   0.383   5.064 -0.2922  0.4506 -0.9280
  534THF     C9 9938   1.111   0.308   5.034  0.1215 -0.0899 -0.0938
  534THF    H10 9939   1.005   0.442   5.153 -1.9672 -0.8463  0.3617
  534THF    H11 9940   0.963   0.454   4.984  0.7933  0.6333 -1.0781
  534THF    H12 9941   1.164   0.348   4.948 -1.2137 -0.2957 -1.0418
  534THF    H13 9942   1.177   0.315   5.121 -1.0127  1.7820  0.6621
  535THF     O1 9943   0.660   1.692   3.262  0.1312  0.2044  0.3744
  535THF     C2 9944   0.731   1.795   3.198  0.6091 -0.3075 -0.0463
  535THF     C3 9945   0.524   1.688   3.206 -0.1193 -0.2352  0.6046
  535THF     H4 9946   0.836   1.771   3.212  0.5159 -0.0274  1.2398
  535THF     H5 9947   0.706   1.890   3.245 -0.9872 -0.3939 -0.6637
  535THF     H6 9948   0.492   1.584   3.199  0.0090 -0.1555 -2.3887
  535THF     H7 9949   0.458   1.743   3.274  1.5356  0.2301  1.9140
  535THF     C8 9950   0.531   1.758   3.067 -0.3596  1.9657  0.1778
  535THF     C9 9951   0.679   1.798   3.056 -0.4874 -0.0824  0.0705
  535THF    H10 9952   0.468   1.847   3.074 -1.0019  1.4574  1.0991
  535THF    H11 9953   0.495   1.691   2.989 -3.9554  1.0334  2.3817
  535THF    H12 9954   0.743   1.730   3.000  1.4581  1.0859  0.7648
  535THF    H13 9955   0.690   1.893   3.004 -2.5159 -0.8411 -1.8807
  536THF     O1 9956   1.923   0.002   2.778 -0.2624  0.1139  0.1251
  536THF     C2 9957   1.972  -0.048   2.904  0.1695 -0.2647  0.2164
  536THF     C3 9958   1.857  -0.101   2.707 -0.2854 -0.0898 -0.2354
  536THF     H4 9959   1.951   0.020   2.987  0.5065  0.3667 -0.2028
  536THF     H5 9960   2.080  -0.064   2.898 -0.1115 -2.8000  0.6294
  536THF     H6 9961   1.751  -0.078   2.699 -0.5373 -1.5364 -1.7584
  536THF     H7 9962   1.893  -0.104   2.604  1.4465 -0.5329  0.3431
  536THF     C8 9963   1.896  -0.233   2.781  0.4364  0.1928  0.0730
  536THF     C9 9964   1.894  -0.177   2.921 -0.3092 -0.7878 -0.1589
  536THF    H10 9965   1.996  -0.270   2.758 -0.3963 -4.0169  2.0626
  536THF    H11 9966   1.823  -0.310   2.757  0.6083  0.0794 -0.0844
  536THF    H12 9967   1.794  -0.152   2.955  0.7296  1.8769  1.2490
  536THF    H13 9968   1.943  -0.245   2.991  0.3313 -1.2610 -1.0514
  537THF     O1 9969   0.761   0.872   0.875  0.3805  0.2248 -0.3306
  537THF     C2 9970   0.774   0.746   0.807 -0.0040  0.4922  0.4032
  537THF     C3 9971   0.635   0.932   0.846 -0.1942  0.5372  0.2195
  537THF     H4 9972   0.837   0.679   0.865  0.7334  1.3084  0.5862
  537THF     H5 9973   0.823   0.765   0.711  1.9774 -0.0025  1.2633
  537THF     H6 9974   0.576   0.944   0.937 -0.2863 -0.0391  0.2407
  537THF     H7 9975   0.652   1.032   0.805  0.7112  0.2996 -0.0150
  537THF     C8 9976   0.558   0.837   0.758  0.3047  0.0436 -0.4439
  537THF     C9 9977   0.629   0.707   0.791  0.0523  0.1078 -0.3939
  537THF    H10 9978   0.568   0.863   0.652 -0.4631  1.7330 -0.1286
  537THF    H11 9979   0.450   0.840   0.765  0.2419 -0.7467 -0.8794
  537THF    H12 9980   0.590   0.676   0.888  0.2520  1.5217  0.1551
  537THF    H13 9981   0.610   0.620   0.727 -0.7430 -0.6580  0.8402
  538THF     O1 9982   2.844   3.987   2.029 -0.3034 -0.1424 -0.6300
  538THF     C2 9983   2.847   3.978   1.885 -0.5278 -0.9624 -0.2301
  538THF     C3 9984   2.972   3.962   2.084 -0.4695  0.5680 -0.1324
  538THF     H4 9985   2.769   4.045   1.847 -0.7582 -0.2458  1.4423
  538THF     H5 9986   2.828   3.881   1.839  0.7658 -0.9696 -0.7942
  538THF     H6 9987   2.981   3.998   2.186 -2.5189  0.2895  0.1785
  538THF     H7 9988   2.976   3.853   2.086 -1.5324  0.3910 -2.9877
  538THF     C8 9989   3.062   4.029   1.982 -0.3146  0.0902 -0.0810
  538THF     C9 9990   2.984   4.032   1.849 -0.2123  0.1863 -0.3610
  538THF    H10 9991   3.158   3.976   1.982 -0.0572  0.5297 -1.1915
  538THF    H11 9992   3.081   4.133   2.008 -2.0157  0.9717 -2.0894
  538THF    H12 9993   2.976   4.134   1.811 -3.0580 -0.4463 -1.7910
  538THF    H13 9994   3.030   3.964   1.778  0.0387  0.3234 -0.3282
  539THF     O1 9995   1.977   4.981   4.077 -0.7428  0.8357  0.2951
  539THF     C2 9996   2.020   4.848   4.105 -0.0941 -0.4094 -0.0572
  539THF     C3 9997   1.972   4.992   3.939  0.6283  1.1006 -0.2902
  539THF     H4 9998   1.996   4.816   4.207  0.8425 -3.2608 -0.6291
  539THF     H5 9999   2.129   4.841   4.101 -0.1433 -1.0964 -0.3496
  539THF     H610000   1.915   5.077   3.901 -1.4622 -1.1146 -2.4776
  539THF     H710001   2.071   5.003   3.895  0.5861  1.4795 -0.2928
  539THF     C810002   1.913   4.853   3.898 -0.4592  0.4405 -0.1141
  539THF     C910003   1.948   4.759   4.006 -0.4134 -0.4365 -0.7977
  539THF    H1010004   1.953   4.814   3.804  0.6977 -2.0067  1.2791
  539THF    H1110005   1.807   4.868   3.879 -0.1787  0.5774 -1.7177
  539THF    H1210006   1.851   4.732   4.049 -0.0500 -0.2958  0.1470
  539THF    H1310007   1.995   4.667   3.970 -0.1012 -0.6581  0.1495
  540THF     O110008   1.942   1.659   5.348 -0.1106  0.0432  0.0494
  540THF     C210009   1.963   1.712   5.481  0.4250 -0.2775  0.7984
  540THF     C310010   2.068   1.647   5.285  0.0560  0.4582  0.0322
  540THF     H410011   1.879   1.719   5.550  1.2714  2.0059  1.6931
  540THF     H510012   1.990   1.817   5.468 -2.7198  0.6588  1.0997
  540THF     H610013   2.068   1.570   5.208  2.0454 -0.8372  1.2365
  540THF     H710014   2.099   1.742   5.244  2.8263  0.5557  2.0886
  540THF     C810015   2.165   1.601   5.396  0.5552 -0.0483  0.0600
  540THF     C910016   2.096   1.651   5.529 -0.2927  0.2095 -0.0939
  540THF    H1010017   2.266   1.638   5.375  1.3015 -0.5516  2.3614
  540THF    H1110018   2.167   1.494   5.379 -0.1895 -0.0769  0.1144
  540THF    H1210019   2.070   1.561   5.584  2.9126 -0.5557  0.3804
  540THF    H1310020   2.155   1.717   5.593 -1.8516  1.8496 -0.2767
  541THF     O110021   2.083   2.304   4.914 -0.1350  0.2484 -0.0569
  541THF     C210022   2.075   2.182   4.847 -0.4199 -0.6427  0.6004
  541THF     C310023   1.993   2.296   5.029  0.0445  0.1996 -0.2793
  541THF     H410024   2.153   2.177   4.771  0.0637 -1.7556  1.1513
  541THF     H510025   1.980   2.163   4.797  0.6653 -1.2199 -1.3491
  541THF     H610026   2.009   2.366   5.111 -1.3912 -2.4564  2.4671
  541THF     H710027   1.885   2.298   5.012  0.1686  3.2797 -1.3823
  541THF     C810028   2.030   2.153   5.081  0.1240 -0.3008  0.2049
  541THF     C910029   2.094   2.083   4.962  0.5758 -0.1879  0.2766
  541THF    H1010030   1.939   2.103   5.112  0.2745  0.0517  1.2651
  541THF    H1110031   2.087   2.155   5.174 -0.9530 -0.1057  0.8762
  541THF    H1210032   2.196   2.056   4.987 -0.2931 -3.7865  0.4391
  541THF    H1310033   2.034   1.996   4.935 -0.2208  0.4618 -0.0931
  542THF     O110034   3.564   0.411   4.629  0.5496 -0.0557 -0.9589
  542THF     C210035   3.506   0.459   4.508  0.1865 -0.4915  0.6336
  542THF     C310036   3.696   0.369   4.594  1.1572  0.2942 -0.2874
  542THF     H410037   3.550   0.555   4.485  0.7454 -0.9204 -0.1390
  542THF     H510038   3.398   0.467   4.521  0.0023 -1.2013 -0.3096
  542THF     H610039   3.751   0.460   4.568 -0.7189  1.5744 -0.0435
  542THF     H710040   3.744   0.311   4.672 -0.9229 -0.9222  0.1524
  542THF     C810041   3.667   0.284   4.464 -0.1784  0.1639 -0.0793
  542THF     C910042   3.541   0.343   4.408 -0.1352 -0.1930 -0.2001
  542THF    H1010043   3.645   0.181   4.490 -2.2941  0.9511  1.4392
  542THF    H1110044   3.749   0.297   4.393  0.1866  3.1573  0.7406
  542THF    H1210045   3.545   0.394   4.312 -5.5759  1.0335 -0.1145
  542THF    H1310046   3.453   0.280   4.403 -0.0997 -0.4155  1.4220
  543THF     O110047   1.058   1.201   1.592 -0.6513 -0.4727 -0.7635
  543THF     C210048   1.018   1.225   1.728  0.1093 -0.2175  0.2911
  543THF     C310049   0.956   1.254   1.512 -0.2421 -0.4793 -0.4401
  543THF     H410050   1.093   1.208   1.804  1.8509 -0.1927 -1.3457
  543THF     H510051   0.928   1.168   1.751 -0.1365  0.2665  0.5517
  543THF     H610052   0.979   1.227   1.409  3.6634 -1.0943  0.4401
  543THF     H710053   0.861   1.206   1.534 -0.0428 -0.3176  0.8285
  543THF     C810054   0.947   1.400   1.567  0.2032 -0.4723  0.8248
  543THF     C910055   0.967   1.370   1.715  1.1539  0.2408  0.5922
  543THF    H1010056   0.853   1.446   1.537  0.3570 -1.2583 -1.0130
  543THF    H1110057   1.034   1.455   1.532 -0.6112 -0.2353 -0.9511
  543THF    H1210058   1.044   1.430   1.762 -0.5809  3.8172 -0.7292
  543THF    H1310059   0.873   1.385   1.769  0.8121  1.4297 -0.2984
  544THF     O110060   2.183   1.385   3.114 -0.7604  0.3471  0.4991
  544THF     C210061   2.125   1.323   2.997  0.1284  0.6622  0.2890
  544THF     C310062   2.320   1.339   3.119 -0.4043  0.8269 -0.3804
  544THF     H410063   2.072   1.405   2.950 -0.1103  0.5103  0.2907
  544THF     H510064   2.050   1.247   3.018 -0.3210  0.4233 -1.9780
  544THF     H610065   2.392   1.414   3.154  1.2402 -0.7938 -0.1138
  544THF     H710066   2.329   1.240   3.164  0.2473  0.7582 -0.6499
  544THF     C810067   2.360   1.321   2.974  0.0309 -0.2985  0.4530
  544THF     C910068   2.235   1.271   2.906  0.3137  0.4702  0.0204
  544THF    H1010069   2.442   1.248   2.970 -0.7309 -1.1766  0.4857
  544THF    H1110070   2.388   1.417   2.932 -0.7162 -0.0471  0.5241
  544THF    H1210071   2.220   1.298   2.801 -1.8573  1.5121  0.5326
  544THF    H1310072   2.226   1.163   2.903 -0.8679  0.4563  2.2047
  545THF     O110073   1.517   0.597   4.922  0.5376  0.0259  0.0618
  545THF     C210074   1.536   0.724   4.855 -0.2720  0.2694 -0.5905
  545THF     C310075   1.446   0.510   4.823 -0.5592  0.1717 -0.1631
  545THF     H410076   1.637   0.726   4.813  0.5411 -0.4917  1.2107
  545THF     H510077   1.528   0.800   4.933  0.5860 -1.6888  1.5172
  545THF     H610078   1.511   0.425   4.801 -0.6870 -0.3411  1.3270
  545THF     H710079   1.353   0.480   4.872 -1.3958  0.5942 -1.4463
  545THF     C810080   1.431   0.595   4.693 -0.7122 -0.7122 -0.0668
  545THF     C910081   1.438   0.739   4.741 -0.0267  0.3889  0.0292
  545THF    H1010082   1.353   0.579   4.619 -1.0386  0.0449  0.1069
  545THF    H1110083   1.521   0.568   4.637  1.8923  1.7423  2.5489
  545THF    H1210084   1.474   0.811   4.668  0.0613  0.9895  0.6476
  545THF    H1310085   1.342   0.767   4.784 -0.4872 -0.1247 -0.6550
  546THF     O110086   2.328   1.670   4.716  0.4400 -0.4751 -0.1181
  546THF     C210087   2.238   1.745   4.634 -0.2803  0.2254 -0.1806
  546THF     C310088   2.445   1.659   4.643 -0.5095 -0.4378  0.0955
  546THF     H410089   2.144   1.771   4.684  0.7520 -1.0956  2.6508
  546THF     H510090   2.219   1.693   4.540 -0.2226 -0.4211  0.1607
  546THF     H610091   2.531   1.621   4.698  0.4498 -2.2554 -2.5022
  546THF     H710092   2.432   1.593   4.558 -0.6859 -0.5816  0.2310
  546THF     C810093   2.465   1.804   4.590  0.5312  0.2564  0.2556
  546THF     C910094   2.324   1.865   4.602  0.5859  0.2423 -0.4381
  546THF    H1010095   2.485   1.794   4.483 -0.8137 -0.4456  0.0479
  546THF    H1110096   2.541   1.865   4.640  0.3054 -0.0064  0.9234
  546THF    H1210097   2.314   1.926   4.691 -1.9068 -1.7968  0.7980
  546THF    H1310098   2.291   1.916   4.511  1.1824  1.7846  0.1831
  547THF     O110099   1.487   2.047   5.453 -0.0021 -0.0116  0.1470
  547THF     C210100   1.617   2.009   5.497  0.5094 -0.5446  0.3476
  547THF     C310101   1.416   2.046   5.570  0.3727  0.3577 -0.5527
  547THF     H410102   1.670   2.094   5.541  1.4786 -0.6648 -0.5466
  547THF     H510103   1.684   1.977   5.418  0.3868 -2.6637  1.0418
  547THF     H610104   1.441   2.134   5.629 -0.3334  1.2964 -1.6262
  547THF     H710105   1.311   2.051   5.543  0.3502 -0.6425 -0.7052
  547THF     C810106   1.450   1.917   5.638 -0.0629 -0.1090  0.6393
  547THF     C910107   1.587   1.891   5.591  0.3295 -0.6058 -0.5841
  547THF    H1010108   1.387   1.834   5.605  1.4344 -0.1691 -2.3442
  547THF    H1110109   1.442   1.915   5.747  0.9142 -1.8663  0.7231
  547THF    H1210110   1.646   1.886   5.683 -0.2075 -0.0828 -0.2058
  547THF    H1310111   1.608   1.795   5.545  3.1148 -0.5699  0.4012
  548THF     O110112   3.628   2.872   3.125 -0.7465 -0.1832  0.3616
  548THF     C210113   3.540   2.969   3.064  0.2753 -0.1045  0.1867
  548THF     C310114   3.606   2.893   3.267 -0.2296  0.0442  0.5203
  548THF     H410115   3.518   2.944   2.960  0.7715  3.5358 -0.9651
  548THF     H510116   3.579   3.071   3.069 -4.2531  1.9079 -0.5983
  548THF     H610117   3.648   2.813   3.328  2.2391  1.1932  0.4903
  548THF     H710118   3.637   2.989   3.309  1.8297 -0.6519  0.7194
  548THF     C810119   3.457   2.889   3.276  0.7639 -0.0688  0.0437
  548THF     C910120   3.412   2.956   3.145 -0.1006 -0.2670  0.1816
  548THF    H1010121   3.409   2.922   3.368 -0.0336 -0.1635 -0.3301
  548THF    H1110122   3.425   2.785   3.272 -0.0497 -0.0170  2.9888
  548THF    H1210123   3.337   2.898   3.090  0.1413  2.4004 -3.3945
  548THF    H1310124   3.364   3.052   3.163 -0.0468 -0.0730 -0.6448
  549THF     O110125   0.414   4.539   5.316 -0.6903 -0.1968  0.2737
  549THF     C210126   0.453   4.569   5.184 -0.0077  0.4235  0.0536
  549THF     C310127   0.481   4.427   5.360 -0.7559  0.1231 -0.4658
  549THF     H410128   0.431   4.672   5.158  2.6308  0.4659 -2.6700
  549THF     H510129   0.401   4.503   5.114 -0.3589  0.2307  0.4930
  549THF     H610130   0.475   4.411   5.468 -2.1354 -0.9665 -0.6801
  549THF     H710131   0.459   4.335   5.306  0.9099  0.5409 -1.9418
  549THF     C810132   0.624   4.451   5.308 -0.1458  0.0608 -0.0285
  549THF     C910133   0.604   4.545   5.186 -0.1895 -0.1976 -0.0666
  549THF    H1010134   0.668   4.353   5.290 -1.3606 -0.8909  1.8641
  549THF    H1110135   0.679   4.495   5.391 -2.1065  2.2157  0.2587
  549THF    H1210136   0.646   4.644   5.207  1.6291 -1.3788  2.2348
  549THF    H1310137   0.644   4.506   5.092 -0.6019 -0.1205 -0.2775
  550THF     O110138   1.900   4.956   0.087  0.4732 -0.0228 -0.0456
  550THF     C210139   1.873   4.827   0.148  0.2398 -0.5082  0.2635
  550THF     C310140   1.996   4.945  -0.014 -0.3038  0.5202 -0.5277
  550THF     H410141   1.777   4.819   0.200 -0.0480 -1.1715 -0.3649
  550THF     H510142   1.952   4.800   0.218  0.4155 -2.8950 -0.7676
  550THF     H610143   1.972   5.018  -0.091  2.5323  1.6515 -0.4266
  550THF     H710144   2.094   4.967   0.027 -0.6302  0.5947  0.2233
  550THF     C810145   1.984   4.796  -0.063 -0.0678  0.4290 -0.3811
  550THF     C910146   1.872   4.738   0.021  0.3816 -0.8130 -0.9074
  550THF    H1010147   2.079   4.745  -0.050  0.2885  1.4838  1.5103
  550THF    H1110148   1.948   4.788  -0.166  0.3419  1.5991 -0.6268
  550THF    H1210149   1.784   4.750  -0.042 -0.8176  0.1943  0.8655
  550THF    H1310150   1.870   4.631   0.039 -1.0213 -0.8050 -0.8775
  551THF     O110151   1.868   0.215   4.626  0.4479 -0.3364  0.3966
  551THF     C210152   1.736   0.219   4.673  0.2763  0.3412  0.3120
  551THF     C310153   1.866   0.179   4.489  0.2834  0.3305 -0.3043
  551THF     H410154   1.714   0.276   4.764  3.7808  0.8143  0.9838
  551THF     H510155   1.704   0.119   4.705  1.5646  0.0648  0.7860
  551THF     H610156   1.961   0.209   4.445 -0.7806  0.4433 -2.6312
  551THF     H710157   1.844   0.073   4.478  1.9743 -0.0874  0.0218
  551THF     C810158   1.748   0.270   4.443 -0.2272  0.9225 -0.5127
  551THF     C910159   1.651   0.262   4.557  0.2051  0.7077  0.4631
  551THF    H1010160   1.696   0.247   4.350 -1.8983 -2.0452  0.9952
  551THF    H1110161   1.783   0.373   4.437 -0.3324  0.8760 -2.9642
  551THF    H1210162   1.611   0.359   4.587  1.9412  0.7561  2.8964
  551THF    H1310163   1.563   0.201   4.536 -0.4342  2.3311 -1.9448
  552THF     O110164   4.229   0.303   1.893 -0.1026 -0.4257  0.2782
  552THF     C210165   4.272   0.412   1.803  0.0566  0.3863 -0.2336
  552THF     C310166   4.242   0.342   2.024 -1.0086 -0.2573  0.3386
  552THF     H410167   4.182   0.458   1.762 -0.0346  1.8050  1.4264
  552THF     H510168   4.334   0.365   1.727  0.4570  1.5087 -0.6161
  552THF     H610169   4.153   0.390   2.065 -0.6624  1.8617 -1.2149
  552THF     H710170   4.257   0.252   2.085 -2.8689 -1.3618 -0.7478
  552THF     C810171   4.360   0.437   2.020 -0.3136  0.0486  0.0725
  552THF     C910172   4.358   0.509   1.886  0.4575  0.8370 -0.1776
  552THF    H1010173   4.453   0.381   2.028  0.8138  1.8509  0.4231
  552THF    H1110174   4.357   0.514   2.098 -2.9406 -0.7382  0.8399
  552THF    H1210175   4.302   0.602   1.898 -0.2475  0.2511  1.3414
  552THF    H1310176   4.455   0.540   1.847  0.8679  3.3038  2.4839
  553THF     O110177   1.974   4.938   3.139  0.1475  0.2800 -0.3942
  553THF     C210178   1.912   4.832   3.216 -0.3592  0.3494 -0.1598
  553THF     C310179   1.940   5.046   3.222 -0.2327 -0.3919 -0.1323
  553THF     H410180   1.956   4.740   3.177 -1.8853 -1.4622  2.1216
  553THF     H510181   1.805   4.816   3.200 -0.5059  0.7792  0.3360
  553THF     H610182   1.979   5.145   3.199 -1.0989 -0.0770 -0.3045
  553THF     H710183   1.832   5.060   3.217 -0.3456 -0.6540  1.2755
  553THF     C810184   1.976   5.008   3.361  0.5397 -0.1615  0.4884
  553THF     C910185   1.946   4.854   3.366  0.2057  0.4581  0.3573
  553THF    H1010186   1.937   5.072   3.440  2.3156 -1.0361  2.1464
  553THF    H1110187   2.084   5.023   3.369  0.4614  0.2393  0.8551
  553THF    H1210188   2.025   4.791   3.406 -0.8859 -2.2204 -1.4076
  553THF    H1310189   1.859   4.829   3.427 -0.2915 -0.5263 -0.7295
  554THF     O110190   2.433   0.920   3.020  0.1671  0.1776  0.0712
  554THF     C210191   2.472   0.790   3.011 -0.1278 -0.3473 -0.1974
  554THF     C310192   2.299   0.906   3.079  0.1255 -0.2068 -0.6147
  554THF     H410193   2.580   0.804   3.004 -0.3473  2.2327  0.5478
  554THF     H510194   2.432   0.722   2.935 -1.3461 -0.1416  0.2341
  554THF     H610195   2.245   0.994   3.111 -0.3142  0.0398 -1.9470
  554THF     H710196   2.223   0.862   3.014 -2.5627  0.9970  1.5581
  554THF     C810197   2.318   0.811   3.195  0.0193  0.8935  0.1460
  554THF     C910198   2.436   0.737   3.148  0.1027 -0.9778 -0.1768
  554THF    H1010199   2.226   0.753   3.199 -0.4289  1.5343 -0.5867
  554THF    H1110200   2.339   0.846   3.296  3.2343 -1.8618  0.5790
  554THF    H1210201   2.517   0.757   3.218 -0.3190 -1.2448  0.3908
  554THF    H1310202   2.423   0.629   3.157  0.5460 -1.1644 -1.4695
  555THF     O110203   0.532   1.093   1.178  1.1148 -0.2663  0.0337
  555THF     C210204   0.605   1.181   1.092 -0.1597  0.3251  0.6509
  555THF     C310205   0.525   1.147   1.308  0.1337 -0.1279  0.0625
  555THF     H410206   0.560   1.212   0.998  0.2171 -0.2077  0.2939
  555THF     H510207   0.701   1.132   1.075 -1.6177 -2.0475 -1.2023
  555THF     H610208   0.430   1.200   1.317 -0.0537 -0.4329 -0.1043
  555THF     H710209   0.515   1.067   1.381  0.6499 -1.1029 -0.9110
  555THF     C810210   0.645   1.238   1.315 -0.1409 -0.0537  0.4477
  555THF     C910211   0.646   1.301   1.184 -0.1931 -0.6161  0.1160
  555THF    H1010212   0.726   1.167   1.333 -1.5735 -2.1660 -0.9421
  555THF    H1110213   0.647   1.302   1.403  1.5773 -0.0417  0.4376
  555THF    H1210214   0.578   1.387   1.188  0.4477 -0.0557 -0.6521
  555THF    H1310215   0.740   1.347   1.153  0.0002  0.8023  2.4896
  556THF     O110216   4.065   5.338   3.112  0.0696  0.0947 -0.6226
  556THF     C210217   3.953   5.402   3.048 -0.7235  0.4244  0.1086
  556THF     C310218   4.173   5.432   3.125  0.4390 -0.3448  0.4829
  556THF     H410219   3.863   5.359   3.091 -0.1536 -2.1760 -1.0789
  556THF     H510220   3.954   5.376   2.942  3.7010 -2.2546  0.5708
  556THF     H610221   4.252   5.400   3.193  0.6705  2.1168  1.4891
  556THF     H710222   4.219   5.433   3.026  1.3114 -0.6996  0.8764
  556THF     C810223   4.105   5.563   3.159  0.5282 -0.3447  0.1378
  556THF     C910224   3.974   5.553   3.072 -0.6662 -0.1562  0.3448
  556THF    H1010225   4.169   5.647   3.133  1.0890 -0.6308  0.5755
  556THF    H1110226   4.091   5.562   3.267  2.5899  0.3603  0.4665
  556THF    H1210227   3.895   5.595   3.133  0.0999 -0.4092  1.5499
  556THF    H1310228   3.975   5.615   2.982 -0.7836 -0.8922 -0.1725
  557THF     O110229   4.380   4.434   3.715 -0.0247 -0.0376  0.9222
  557THF     C210230   4.273   4.462   3.810  0.7142 -0.1372 -0.6901
  557THF     C310231   4.340   4.451   3.577 -0.2283 -0.2714  0.3104
  557THF     H410232   4.264   4.569   3.827  1.4601  0.1387 -1.8653
  557THF     H510233   4.263   4.413   3.906  0.0873  1.2602 -0.0112
  557THF     H610234   4.391   4.538   3.537  0.5675 -0.5989  0.6032
  557THF     H710235   4.365   4.364   3.516  0.3917  1.0590 -1.4366
  557THF     C810236   4.184   4.456   3.581 -0.2304 -0.8031 -0.1846
  557THF     C910237   4.148   4.423   3.725 -0.0867  0.7210  0.0554
  557THF    H1010238   4.137   4.401   3.499  1.2778 -2.1680 -0.1777
  557THF    H1110239   4.152   4.558   3.561 -3.8700 -2.0974 -2.0640
  557THF    H1210240   4.060   4.482   3.748 -0.5819 -0.3554  1.0598
  557THF    H1310241   4.131   4.316   3.739  2.1310  0.3770  0.5593
  558THF     O110242   5.014   2.040   1.849  0.4523  0.5025 -0.5960
  558THF     C210243   5.094   1.972   1.757  0.1561  0.5972 -0.0190
  558THF     C310244   5.083   2.158   1.866 -0.1518 -0.2543  0.5525
  558THF     H410245   5.034   1.897   1.706 -0.2416  1.4272 -0.8072
  558THF     H510246   5.177   1.924   1.808 -0.4324 -1.8119 -1.1628
  558THF     H610247   5.021   2.227   1.923  0.2846  1.7747 -1.2816
  558THF     H710248   5.172   2.135   1.924  0.6342  0.9032 -0.1589
  558THF     C810249   5.136   2.206   1.732 -0.2730  0.2681 -0.0984
  558THF     C910250   5.150   2.073   1.658  0.1329 -0.1058  0.5183
  558THF    H1010251   5.229   2.260   1.750  0.6877 -0.8769 -1.4046
  558THF    H1110252   5.061   2.269   1.684  0.0434  1.4333  0.8760
  558THF    H1210253   5.092   2.063   1.566 -0.5420 -2.8738  1.1614
  558THF    H1310254   5.250   2.041   1.630  0.7685  0.8139  1.6718
  559THF     O110255   2.292   3.686   5.461 -0.3371  0.5593 -0.0688
  559THF     C210256   2.210   3.792   5.399 -0.1811  0.5383 -1.0772
  559THF     C310257   2.258   3.572   5.390  0.1578 -0.0862 -0.1191
  559THF     H410258   2.235   3.896   5.420  0.6976 -0.3673  3.1592
  559THF     H510259   2.107   3.767   5.422  0.0171 -0.9530 -1.7209
  559THF     H610260   2.326   3.488   5.402  0.3992  0.2771  1.2209
  559THF     H710261   2.162   3.537   5.428  0.3185  0.1520  0.5197
  559THF     C810262   2.239   3.623   5.242 -0.7665  0.5121 -0.0102
  559THF     C910263   2.241   3.775   5.256  0.6786 -0.0595  0.2077
  559THF    H1010264   2.149   3.580   5.200  0.4306 -0.7221 -1.4269
  559THF    H1110265   2.320   3.591   5.177 -2.4276 -1.6249 -1.1523
  559THF    H1210266   2.340   3.813   5.230 -0.5137  1.4373 -2.7097
  559THF    H1310267   2.183   3.825   5.178  0.2050 -1.5338 -0.4167
  560THF     O110268   3.807   4.403   1.909 -0.1237 -0.0081  0.1678
  560THF     C210269   3.818   4.546   1.910 -0.0805  0.3688 -0.3050
  560THF     C310270   3.690   4.363   1.830 -0.2332  0.7297  0.9686
  560THF     H410271   3.919   4.569   1.944  0.0291 -0.8093  0.2160
  560THF     H510272   3.760   4.587   1.992 -0.0593 -0.4948  0.1527
  560THF     H610273   3.685   4.260   1.796  1.2210  1.4979 -1.8720
  560THF     H710274   3.594   4.387   1.874  0.2508  1.0263  1.8938
  560THF     C810275   3.692   4.462   1.715 -0.3829  0.0258 -0.4349
  560THF     C910276   3.775   4.580   1.767 -0.4739  0.4116  0.7185
  560THF    H1010277   3.590   4.474   1.678 -0.3939  1.5062  0.0088
  560THF    H1110278   3.752   4.410   1.640  0.7137 -1.9593  1.6954
  560THF    H1210279   3.866   4.600   1.711 -1.4719 -0.6430 -1.3527
  560THF    H1310280   3.722   4.676   1.772 -0.7848  0.2499  0.5681
  561THF     O110281   4.491   0.096   5.299 -0.0984 -0.6768  0.2599
  561THF     C210282   4.372   0.025   5.264  0.6436  0.0148  0.1807
  561THF     C310283   4.471   0.230   5.242 -0.5970  0.1670  0.3364
  561THF     H410284   4.300   0.034   5.345  1.6634 -0.2819  1.1622
  561THF     H510285   4.395  -0.081   5.251  0.9615  0.1867 -0.7217
  561THF     H610286   4.395   0.286   5.296  0.1209  1.2683  0.2345
  561THF     H710287   4.562   0.289   5.251 -0.3829 -0.0885 -0.0976
  561THF     C810288   4.428   0.193   5.103 -0.2296  0.2767  0.3553
  561THF     C910289   4.321   0.083   5.125 -0.0531  0.4781 -0.1818
  561THF    H1010290   4.515   0.163   5.045  0.2012  0.4273  0.9094
  561THF    H1110291   4.393   0.280   5.046  1.7282 -1.6102 -4.2302
  561THF    H1210292   4.222   0.129   5.133  0.0178  0.7331 -0.6644
  561THF    H1310293   4.315   0.013   5.042 -1.0849 -0.2685  0.5077
  562THF     O110294   2.078   0.418   1.414  0.2148 -0.0357 -0.4905
  562THF     C210295   1.968   0.412   1.333  0.5356  0.0896  0.3251
  562THF     C310296   2.162   0.526   1.371 -0.1533 -0.0923  0.1517
  562THF     H410297   1.884   0.466   1.375 -0.9123 -0.7305 -1.3892
  562THF     H510298   1.935   0.308   1.326  0.2193  0.0821  1.7204
  562THF     H610299   2.105   0.613   1.401 -1.7331 -1.4819  1.3787
  562THF     H710300   2.265   0.542   1.403  0.2253  1.8909 -1.8174
  562THF     C810301   2.147   0.525   1.219 -0.8050  0.8981 -0.0932
  562THF     C910302   2.004   0.479   1.205 -0.0396  0.0168  0.3581
  562THF    H1010303   2.215   0.450   1.177 -1.2037 -1.7536  3.5332
  562THF    H1110304   2.171   0.618   1.167  0.3478 -0.1342 -1.5074
  562THF    H1210305   1.938   0.565   1.199 -1.4454 -1.0757 -0.4728
  562THF    H1310306   2.006   0.407   1.123  0.4572 -1.7236  1.8482
  563THF     O110307   5.424   3.031   2.022  0.2733 -0.3218 -0.2428
  563THF     C210308   5.313   2.960   1.966  0.3817 -0.3562 -0.5766
  563THF     C310309   5.398   3.038   2.162 -0.5566 -0.5438 -0.0803
  563THF     H410310   5.348   2.911   1.875 -0.6748 -0.1937 -1.0883
  563THF     H510311   5.226   3.024   1.951  2.0263  2.3886  0.8586
  563THF     H610312   5.491   3.042   2.218  0.2740 -2.8485 -1.1472
  563THF     H710313   5.341   3.128   2.184 -0.0006 -0.2619  0.2143
  563THF     C810314   5.323   2.911   2.203 -0.1848 -0.5855  0.7882
  563THF     C910315   5.276   2.850   2.070 -0.2751 -0.8225 -0.1662
  563THF    H1010316   5.244   2.943   2.271 -1.0921 -1.3517  0.1187
  563THF    H1110317   5.381   2.842   2.263 -3.8758 -2.4053  2.5288
  563THF    H1210318   5.324   2.757   2.040  0.4708 -0.8703  1.0907
  563THF    H1310319   5.170   2.825   2.070  0.1297 -2.8205  1.3222
  564THF     O110320   3.347   0.853   4.058  0.9755 -0.6732  0.6967
  564THF     C210321   3.294   0.974   4.117 -0.0220  0.0888  0.1762
  564THF     C310322   3.400   0.778   4.152 -1.0913  0.5109 -0.2521
  564THF     H410323   3.204   0.997   4.060 -0.0288  0.8160  0.4755
  564THF     H510324   3.356   1.062   4.106  0.2896 -0.2331 -0.7730
  564THF     H610325   3.404   0.672   4.125  2.1150  0.6129 -0.6246
  564THF     H710326   3.502   0.806   4.178 -1.1926 -1.3355  2.6332
  564THF     C810327   3.306   0.799   4.261  0.0498 -0.1153 -1.2534
  564THF     C910328   3.266   0.947   4.260 -0.2874  0.0161 -0.4066
  564THF    H1010329   3.350   0.759   4.352  0.1646  0.8320 -0.8855
  564THF    H1110330   3.216   0.742   4.237 -1.2782  1.7409 -0.8612
  564THF    H1210331   3.166   0.970   4.296 -0.5549 -1.3260 -0.2287
  564THF    H1310332   3.344   0.988   4.325  0.4221  1.3550 -2.0073
  565THF     O110333   0.353   3.187   3.575 -0.0019 -0.3351 -0.1644
  565THF     C210334   0.338   3.082   3.494  0.0575  0.6116  0.0550
  565THF     C310335   0.479   3.184   3.638 -0.3351  1.0408  0.7287
  565THF     H410336   0.254   3.080   3.423 -1.3369  0.2056  1.6547
  565THF     H510337   0.316   2.996   3.558 -0.7068  0.9485  0.2547
  565THF     H610338   0.509   3.282   3.675  2.9079  0.9419 -1.1887
  565THF     H710339   0.487   3.109   3.717 -0.2047 -0.0247 -0.2680
  565THF     C810340   0.564   3.159   3.512 -0.3173  0.8725  0.5393
  565THF     C910341   0.470   3.081   3.418  0.4012  0.2526  0.1793
  565THF    H1010342   0.650   3.099   3.542 -0.6242 -0.2599 -0.7594
  565THF    H1110343   0.596   3.251   3.462 -3.3227  1.1379 -1.1506
  565THF    H1210344   0.470   3.148   3.332 -1.9971  1.2898  0.8836
  565THF    H1310345   0.491   2.979   3.387  4.1614  0.8743  0.2737
  566THF     O110346   4.394   0.495   0.088  0.4208  0.7040 -0.7402
  566THF     C210347   4.448   0.370   0.103 -0.2823  0.8395  0.3862
  566THF     C310348   4.484   0.573   0.015  0.2531  0.5439  0.5120
  566THF     H410349   4.425   0.304   0.019 -2.5392 -1.3225  2.5424
  566THF     H510350   4.416   0.321   0.195  0.1917  0.5087  0.3809
  566THF     H610351   4.488   0.538  -0.088 -0.3699  0.3846  0.5345
  566THF     H710352   4.457   0.679   0.008  0.5990  0.5958 -0.0761
  566THF     C810353   4.611   0.551   0.101 -0.4082 -0.3558  0.1794
  566THF     C910354   4.602   0.396   0.115 -0.3477 -0.2600  0.6311
  566THF    H1010355   4.609   0.596   0.200  0.0761  1.6350 -0.6509
  566THF    H1110356   4.703   0.582   0.051  0.8770 -2.0961  1.3518
  566THF    H1210357   4.651   0.344   0.033 -0.9979 -0.8347  0.5934
  566THF    H1310358   4.644   0.354   0.207  0.3985 -0.1056  0.3659
  567THF     O110359   4.261   5.360   1.209 -0.0140  0.6962  0.5092
  567THF     C210360   4.264   5.222   1.246  0.0552 -0.0553 -0.6440
  567THF     C310361   4.385   5.413   1.256  0.5186 -0.4615  0.2767
  567THF     H410362   4.184   5.186   1.182 -0.4990  1.0018 -0.5732
  567THF     H510363   4.249   5.197   1.351 -1.9363 -3.0703 -1.5205
  567THF     H610364   4.421   5.507   1.213  0.8122 -0.8929 -0.4403
  567THF     H710365   4.385   5.441   1.361  0.5075  1.4734 -0.1919
  567THF     C810366   4.488   5.313   1.216  0.7873 -0.5044 -0.0735
  567THF     C910367   4.404   5.190   1.198  0.4305 -0.1366 -0.2502
  567THF    H1010368   4.570   5.311   1.287  0.5988  0.3201  0.1787
  567THF    H1110369   4.527   5.345   1.119  0.1571 -2.0786 -0.8833
  567THF    H1210370   4.388   5.157   1.095  1.1097 -0.8886 -0.1253
  567THF    H1310371   4.458   5.104   1.238  1.3213 -0.7480 -2.6059
  568THF     O110372   3.849   3.377   1.873 -0.0139  0.4134 -0.9024
  568THF     C210373   3.806   3.261   1.933  0.0645 -0.2590 -0.7066
  568THF     C310374   3.760   3.487   1.905  0.4539  0.4600 -0.1589
  568THF     H410375   3.896   3.204   1.956 -0.0797 -0.7957 -1.4349
  568THF     H510376   3.739   3.223   1.857 -0.5624  0.3304 -0.4646
  568THF     H610377   3.803   3.586   1.916 -1.7652  1.4649  0.0955
  568THF     H710378   3.687   3.498   1.824 -0.0946  1.9049  0.4873
  568THF     C810379   3.703   3.451   2.043 -0.3994  0.1635  0.9614
  568THF     C910380   3.730   3.302   2.059 -0.1995 -0.2886  0.7003
  568THF    H1010381   3.598   3.480   2.034 -0.8643 -1.5926  0.4423
  568THF    H1110382   3.742   3.512   2.124  1.3539  0.2466  0.0961
  568THF    H1210383   3.789   3.286   2.149  1.1409 -1.5302 -0.3561
  568THF    H1310384   3.634   3.249   2.062  0.0145 -1.0292 -2.2390
  569THF     O110385   4.223   3.989   3.336 -0.1435 -0.3230  0.5662
  569THF     C210386   4.135   4.097   3.348 -0.6441  0.8057  0.4463
  569THF     C310387   4.199   3.898   3.439 -0.1157  0.4979  0.3522
  569THF     H410388   4.133   4.140   3.248 -0.1646 -0.3315 -0.0662
  569THF     H510389   4.173   4.172   3.417  0.9857  0.5447 -0.1194
  569THF     H610390   4.208   3.794   3.406 -1.6006  0.2769  0.5881
  569THF     H710391   4.280   3.906   3.511  0.2872 -0.2873 -0.0040
  569THF     C810392   4.065   3.939   3.509 -0.0617  0.6657  0.9513
  569THF     C910393   4.007   4.028   3.398 -0.2161  0.2016  0.6074
  569THF    H1010394   4.100   3.990   3.599  0.8708  1.1687  0.3189
  569THF    H1110395   4.007   3.852   3.538 -0.9868  1.1172  0.4984
  569THF    H1210396   3.950   3.974   3.322 -0.8049  0.1719  1.0620
  569THF    H1310397   3.939   4.104   3.436 -0.3926 -0.2222  1.1558
  570THF     O110398   1.657   4.096   0.475 -0.2066  0.5722 -0.0603
  570THF     C210399   1.548   4.039   0.551 -0.0013  0.2086  0.4553
  570THF     C310400   1.661   4.032   0.348 -0.4386  0.3446 -0.6667
  570THF     H410401   1.509   4.107   0.627  1.5952  0.6811  0.8814
  570THF     H510402   1.589   3.952   0.601  0.3098 -0.5751 -1.1175
  570THF     H610403   1.715   4.089   0.272 -0.1793  0.1381 -0.6377
  570THF     H710404   1.686   3.927   0.363 -1.9705  0.1418  0.7039
  570THF     C810405   1.510   4.037   0.317 -0.1014 -0.5776 -0.0125
  570THF     C910406   1.440   4.002   0.445 -0.4884  0.6641 -0.4831
  570THF    H1010407   1.499   3.957   0.243  3.4276 -0.7516 -0.5196
  570THF    H1110408   1.478   4.136   0.283 -1.9550  0.2083  3.4971
  570THF    H1210409   1.352   4.065   0.459  0.6439  2.2958 -0.4093
  570THF    H1310410   1.406   3.899   0.440  0.0658  0.4610 -0.1922
  571THF     O110411   0.210   3.861   0.465  0.3671  0.4599 -0.4617
  571THF     C210412   0.213   3.975   0.370 -0.3970 -0.1077 -0.0382
  571THF     C310413   0.114   3.766   0.409  0.4643  0.4404 -0.6762
  571THF     H410414   0.311   3.988   0.325 -1.1890  1.9598 -1.2914
  571THF     H510415   0.207   4.069   0.425  0.0413  0.9730 -1.7743
  571THF     H610416   0.179   3.704   0.348 -1.4444 -1.2668 -1.0592
  571THF     H710417   0.067   3.714   0.492 -0.9604  2.3233 -0.2269
  571THF     C810418   0.015   3.851   0.328 -0.1161  0.2821  0.3346
  571THF     C910419   0.097   3.965   0.270 -0.2656  0.6569 -0.1145
  571THF    H1010420  -0.062   3.891   0.394 -0.5808  0.4094 -0.2749
  571THF    H1110421  -0.039   3.805   0.245 -0.2523  0.1248  0.5091
  571THF    H1210422   0.138   3.945   0.171 -0.2459  0.0677  0.0075
  571THF    H1310423   0.038   4.055   0.253 -2.2763 -0.6439 -0.3947
  572THF     O110424   3.821   3.123   5.371  0.4443 -0.3775 -0.3518
  572THF     C210425   3.758   3.126   5.506 -0.7446  0.1513 -0.4605
  572THF     C310426   3.961   3.159   5.384 -0.0568 -0.0337  0.2094
  572THF     H410427   3.674   3.056   5.508  0.3408 -1.2645 -1.8598
  572THF     H510428   3.721   3.226   5.526 -1.8293 -0.1119 -1.0442
  572THF     H610429   4.027   3.125   5.304  1.9534  2.5073  0.6283
  572THF     H710430   3.982   3.265   5.397  1.3679 -0.4465  1.6997
  572THF     C810431   3.996   3.076   5.509  0.1731  0.5324 -0.3435
  572THF     C910432   3.873   3.082   5.599 -0.4074  0.4059  0.1498
  572THF    H1010433   4.082   3.114   5.563 -0.1017  0.0838  0.4224
  572THF    H1110434   4.019   2.970   5.498 -0.1610  0.3281  0.7557
  572THF    H1210435   3.857   2.992   5.657  0.3171 -1.2816 -2.1525
  572THF    H1310436   3.886   3.165   5.669 -1.1063 -1.6136  2.8071
  573THF     O110437   5.366   2.057   5.081 -0.1484  0.0370  0.2069
  573THF     C210438   5.431   2.155   5.161  0.3794 -0.0792  0.5025
  573THF     C310439   5.466   1.981   5.023 -0.5706  0.1628 -0.3836
  573THF     H410440   5.376   2.161   5.255 -0.8522 -0.9346 -0.1445
  573THF     H510441   5.414   2.244   5.101  0.9160 -1.1648 -1.3343
  573THF     H610442   5.427   1.881   5.005 -0.5991  0.3237 -1.2421
  573THF     H710443   5.492   2.018   4.924 -1.0169  0.9467 -0.2189
  573THF     C810444   5.576   1.974   5.131  0.2255 -0.0670  0.0762
  573THF     C910445   5.579   2.122   5.174 -0.5205 -0.5450  0.5284
  573THF    H1010446   5.672   1.936   5.095  0.8517 -0.0518  1.6351
  573THF    H1110447   5.543   1.913   5.215  1.0891  0.0758  0.5428
  573THF    H1210448   5.626   2.131   5.272 -2.4026 -0.4082  1.4588
  573THF    H1310449   5.640   2.175   5.102 -0.7929 -0.9109  0.0257
  574THF     O110450   2.013   1.988   4.523  0.2808 -0.5540  0.6635
  574THF     C210451   1.958   2.091   4.445  0.4294 -0.6131  1.0868
  574THF     C310452   1.955   1.871   4.495  0.1784  0.1553  0.1366
  574THF     H410453   2.020   2.087   4.355 -0.0840  0.9210  0.6421
  574THF     H510454   1.961   2.186   4.497 -2.9424  0.3441 -0.2306
  574THF     H610455   2.003   1.818   4.412  1.1933  1.3032 -0.0410
  574THF     H710456   1.955   1.799   4.576  0.9769  0.6671  0.5915
  574THF     C810457   1.809   1.905   4.460 -0.5081  0.6212 -0.3988
  574THF     C910458   1.828   2.041   4.394  0.5366 -0.1625  0.2899
  574THF    H1010459   1.751   1.902   4.552  1.5217  0.0135  0.9210
  574THF    H1110460   1.764   1.828   4.398  1.5272 -1.1839  0.2604
  574THF    H1210461   1.828   2.045   4.286 -1.8338 -0.0029  0.2418
  574THF    H1310462   1.738   2.099   4.418  0.2956 -0.1096 -0.7188
  575THF     O110463   2.223   5.073   5.287  0.1650  0.2791  0.4880
  575THF     C210464   2.281   4.971   5.203  0.7521  0.3555  0.2273
  575THF     C310465   2.143   5.149   5.199  0.0778  0.0310 -0.1537
  575THF     H410466   2.284   4.881   5.265  1.9159  0.4609  0.3464
  575THF     H510467   2.380   5.009   5.177  0.6613  0.6275  0.2701
  575THF     H610468   2.049   5.167   5.251 -0.0808  2.0501 -1.0414
  575THF     H710469   2.176   5.251   5.181  2.0437 -0.5261  0.1023
  575THF     C810470   2.137   5.082   5.063 -0.1511 -0.2371 -0.5021
  575THF     C910471   2.184   4.944   5.095  0.2616  0.1496  0.6509
  575THF    H1010472   2.203   5.132   4.991 -0.7416 -0.7685 -1.4413
  575THF    H1110473   2.036   5.075   5.022 -0.3434  0.1025 -0.0911
  575THF    H1210474   2.103   4.888   5.142  0.0474  1.1125  1.4717
  575THF    H1310475   2.231   4.890   5.013 -0.2299  0.6942 -0.0032
  576THF     O110476   3.516   1.884   4.918  0.1710 -0.5666 -0.1669
  576THF     C210477   3.428   1.971   4.851  0.2979 -0.2759  0.1077
  576THF     C310478   3.459   1.856   5.048  0.4978 -0.5875  0.1720
  576THF     H410479   3.350   1.906   4.811  0.6147 -0.5744 -0.0259
  576THF     H510480   3.471   2.035   4.773 -2.4694 -1.5374 -2.7127
  576THF     H610481   3.386   1.774   5.044  2.7169 -2.7270  1.2715
  576THF     H710482   3.537   1.813   5.110  0.7091 -2.7213 -1.4665
  576THF     C810483   3.402   1.991   5.090  0.1912 -0.0158  0.4985
  576THF     C910484   3.361   2.059   4.960  0.7329  0.2695 -0.2369
  576THF    H1010485   3.477   2.062   5.124 -0.0543  1.4816 -1.8647
  576THF    H1110486   3.323   1.977   5.163 -1.9339 -0.0551 -1.6938
  576THF    H1210487   3.253   2.048   4.958  0.3750  2.7459  1.2360
  576THF    H1310488   3.374   2.167   4.951 -0.0270  0.3542 -0.3948
  577THF     O110489   3.285   0.082   3.255 -0.7129 -0.6898  0.4132
  577THF     C210490   3.291  -0.018   3.355  0.6012 -0.4863  0.6268
  577THF     C310491   3.173   0.159   3.270  0.3745  0.3854  0.7411
  577THF     H410492   3.368   0.026   3.420  1.1431  3.3437 -2.2314
  577THF     H510493   3.341  -0.106   3.317  0.8942 -0.1797  0.2908
  577THF     H610494   3.188   0.242   3.339 -0.3183  1.3140 -0.1939
  577THF     H710495   3.139   0.199   3.174 -0.4725  0.5040  1.0877
  577THF     C810496   3.067   0.069   3.319 -0.0893 -0.3835  0.1960
  577THF     C910497   3.147  -0.027   3.406 -0.6842  0.0451  0.1695
  577THF    H1010498   3.028   0.009   3.237  1.9852 -1.4407 -0.0935
  577THF    H1110499   2.979   0.119   3.358 -0.8807  0.4040 -2.4264
  577THF    H1210500   3.145   0.011   3.509 -1.4823  2.9010 -0.8137
  577THF    H1310501   3.108  -0.129   3.411  1.7687 -0.9052  2.4717
  578THF     O110502   0.824   5.491   3.090  0.1577  0.1281 -0.0056
  578THF     C210503   0.698   5.422   3.065 -0.2662 -0.7795  0.3822
  578THF     C310504   0.911   5.478   2.977  0.2789  0.1488 -0.5643
  578THF     H410505   0.637   5.496   3.014  1.9686  0.9874  0.1471
  578THF     H510506   0.649   5.397   3.159  1.3720 -0.5378  1.3232
  578THF     H610507   0.929   5.567   2.917 -0.1395 -0.6250 -1.8976
  578THF     H710508   1.013   5.462   3.011  0.1720  0.6478 -0.0103
  578THF     C810509   0.849   5.367   2.894 -1.2213  0.2578 -0.0223
  578THF     C910510   0.738   5.308   2.973 -0.1505 -0.2540  0.1926
  578THF    H1010511   0.924   5.290   2.878 -1.0334  0.8362 -2.2054
  578THF    H1110512   0.822   5.419   2.802  1.5923 -0.9522 -1.6396
  578THF    H1210513   0.651   5.278   2.914 -0.9741 -0.7522  1.6147
  578THF    H1310514   0.763   5.213   3.020 -1.7176 -0.5525  0.4888
  579THF     O110515   2.863   5.055   4.523 -0.0726 -0.7688 -0.5711
  579THF     C210516   2.881   5.114   4.652 -0.3150  1.0588  0.1073
  579THF     C310517   2.725   5.037   4.509 -0.5035  0.7508  0.5387
  579THF     H410518   2.978   5.163   4.660  0.1118  0.0139  1.8062
  579THF     H510519   2.890   5.040   4.732  2.2429 -0.5150 -1.4554
  579THF     H610520   2.713   5.070   4.406 -3.1142  2.5180  1.2893
  579THF     H710521   2.692   4.935   4.528  0.0682  0.9946  3.2223
  579THF     C810522   2.650   5.143   4.598 -0.0044 -0.4240  0.1780
  579THF     C910523   2.764   5.219   4.669  0.1165  0.5084  0.5368
  579THF    H1010524   2.573   5.092   4.656 -1.6471 -0.1651 -1.6800
  579THF    H1110525   2.588   5.218   4.549 -2.6016 -1.8988  0.9616
  579THF    H1210526   2.795   5.305   4.610 -0.2449 -0.8852 -1.7920
  579THF    H1310527   2.752   5.260   4.770 -3.0600  1.2308 -0.0310
  580THF     O110528   4.066   4.068   5.250  0.0305  0.2516  0.0791
  580THF     C210529   4.081   3.975   5.361  0.1389 -0.0984  0.0197
  580THF     C310530   4.085   4.201   5.291  0.7538 -0.6055 -0.2199
  580THF     H410531   4.096   3.873   5.328 -0.9496 -0.3298  0.2055
  580THF     H510532   3.993   3.982   5.425 -0.1478 -0.5752 -0.3127
  580THF     H610533   4.108   4.257   5.200  2.0143 -0.1676  0.3441
  580THF     H710534   4.005   4.256   5.340 -0.2054  0.1070 -2.4742
  580THF     C810535   4.197   4.189   5.382 -0.0199 -0.4262  0.2986
  580THF     C910536   4.204   4.039   5.413  0.9785  0.7549  0.0715
  580THF    H1010537   4.192   4.256   5.467  0.0031 -1.2547  0.9722
  580THF    H1110538   4.288   4.213   5.327 -0.3455 -2.5303 -1.3018
  580THF    H1210539   4.292   3.995   5.367  0.0734  0.0764 -1.0440
  580THF    H1310540   4.213   4.024   5.521  0.6487  0.6600  0.0867
  581THF     O110541   3.881   4.971   3.599 -0.1329 -0.0730 -0.1636
  581THF     C210542   3.738   4.972   3.574 -0.4220  0.6380  0.2575
  581THF     C310543   3.897   4.870   3.699 -0.3894  0.3264  0.2081
  581THF     H410544   3.714   5.027   3.483  1.4709  0.3107 -0.4973
  581THF     H510545   3.680   5.016   3.655 -1.0950 -1.2622  0.8755
  581THF     H610546   3.996   4.831   3.725 -0.8340 -1.3740 -0.5490
  581THF     H710547   3.843   4.904   3.787 -1.1185 -1.3358  0.4328
  581THF     C810548   3.826   4.752   3.631 -0.1530 -0.2914  0.7587
  581THF     C910549   3.705   4.820   3.563 -0.2676  0.4373  0.1994
  581THF    H1010550   3.782   4.683   3.702  1.1918  0.6451  2.6056
  581THF    H1110551   3.882   4.696   3.556 -0.5755 -0.1981  0.3680
  581THF    H1210552   3.695   4.790   3.458  0.4114  0.0260  0.2486
  581THF    H1310553   3.613   4.784   3.607  1.3724 -2.6870  1.3795
  582THF     O110554   4.840   1.713   3.074 -0.3743  0.9613  0.0273
  582THF     C210555   4.849   1.649   3.200 -0.1663 -0.1433 -0.6036
  582THF     C310556   4.955   1.795   3.076 -0.5369  0.0220  0.3163
  582THF     H410557   4.767   1.578   3.194 -0.7182  0.5847 -2.5124
  582THF     H510558   4.838   1.716   3.285  1.7728  0.4886 -0.7888
  582THF     H610559   4.974   1.825   2.973  1.2464  0.1918  0.6564
  582THF     H710560   4.939   1.878   3.144 -0.8094 -1.7479  2.5457
  582THF     C810561   5.070   1.704   3.119  0.1617 -0.0032 -0.1363
  582THF     C910562   4.994   1.598   3.206 -0.0175 -0.2613  0.1353
  582THF    H1010563   5.158   1.746   3.167 -0.6349  1.2793  0.2561
  582THF    H1110564   5.110   1.647   3.036 -0.1788 -1.9173  0.9641
  582THF    H1210565   4.988   1.502   3.155 -0.3571 -0.0634 -0.1994
  582THF    H1310566   5.031   1.585   3.308  2.5378  1.5596 -0.4596
  583THF     O110567   4.037   2.195   2.877  0.0445  0.0933 -0.4629
  583THF     C210568   4.062   2.090   2.972  0.0593 -0.1583 -0.6440
  583THF     C310569   3.900   2.229   2.875 -0.4523  0.2388 -0.2696
  583THF     H410570   4.066   2.127   3.075 -0.1879  0.1096 -0.7318
  583THF     H510571   4.159   2.045   2.953  1.4903  2.3036  0.2863
  583THF     H610572   3.887   2.308   2.949 -2.0634 -0.9340  0.7664
  583THF     H710573   3.859   2.250   2.777  0.2196 -0.2002 -0.6603
  583THF     C810574   3.829   2.101   2.920 -1.0202  0.0528 -0.3608
  583THF     C910575   3.937   1.999   2.967  0.8049 -0.1233  0.7949
  583THF    H1010576   3.772   2.060   2.836 -0.4596 -0.7216 -0.3803
  583THF    H1110577   3.757   2.118   3.001 -0.5572 -1.5376  0.4362
  583THF    H1210578   3.912   1.945   3.058 -0.4412 -1.1466 -0.1237
  583THF    H1310579   3.952   1.928   2.886 -0.1915  1.3442 -0.7796
  584THF     O110580   1.046   1.598   2.236 -0.5199 -0.3489 -0.2281
  584THF     C210581   1.111   1.637   2.113  0.4203  0.1107 -0.0617
  584THF     C310582   1.083   1.690   2.339 -0.6211  0.9663 -0.7052
  584THF     H410583   1.038   1.686   2.049  0.0795  0.9706  0.9663
  584THF     H510584   1.135   1.548   2.055  0.6188 -0.0284  0.2295
  584THF     H610585   0.998   1.726   2.398 -0.4053  0.7419 -0.2463
  584THF     H710586   1.141   1.632   2.411 -0.7438  4.2756  2.3807
  584THF     C810587   1.169   1.797   2.280  0.1330 -0.0492 -0.0691
  584THF     C910588   1.234   1.722   2.155  0.2525 -0.3190 -0.2687
  584THF    H1010589   1.250   1.825   2.346  1.5341 -2.0502 -0.8558
  584THF    H1110590   1.114   1.886   2.248 -0.5929 -0.8616 -1.1733
  584THF    H1210591   1.276   1.781   2.074  0.0695  0.7022  0.3565
  584THF    H1310592   1.317   1.667   2.199  1.1236 -1.0513 -2.7177
  585THF     O110593   3.659   1.040   4.670 -0.0483 -0.0196 -0.2479
  585THF     C210594   3.626   0.935   4.585  0.0112  0.2317  0.2748
  585THF     C310595   3.595   1.026   4.799 -0.3478 -0.2991 -0.7967
  585THF     H410596   3.712   0.869   4.572  0.4084  0.9421 -0.8327
  585THF     H510597   3.602   0.965   4.483  2.5526 -0.6388 -0.6702
  585THF     H610598   3.683   1.014   4.862 -0.0732 -0.0662 -1.1333
  585THF     H710599   3.540   1.117   4.822  0.1803 -0.0285 -0.5831
  585THF     C810600   3.496   0.914   4.790 -0.4218  0.6333  1.3435
  585THF     C910601   3.493   0.873   4.646 -0.5510  0.5936  0.2961
  585THF    H1010602   3.401   0.938   4.837 -1.0694  0.2032  0.2779
  585THF    H1110603   3.546   0.834   4.846 -0.0494 -0.3417 -0.3046
  585THF    H1210604   3.496   0.766   4.626  1.3619  0.8110 -0.7482
  585THF    H1310605   3.403   0.910   4.597 -0.7391  1.6529  1.3991
  586THF     O110606   3.794   2.767   1.684 -0.4113 -0.4925 -0.0521
  586THF     C210607   3.906   2.858   1.688  0.1784  1.0430  0.1936
  586THF     C310608   3.681   2.839   1.643  0.0848 -1.0823 -0.0924
  586THF     H410609   3.965   2.866   1.597  1.0866 -0.3088  0.6215
  586THF     H510610   3.967   2.823   1.772 -1.3307  2.0148  1.7484
  586THF     H610611   3.684   2.847   1.535 -2.0284 -1.5983 -0.2310
  586THF     H710612   3.584   2.795   1.665 -1.0739  2.2811  2.4631
  586THF     C810613   3.695   2.977   1.703 -0.1814 -1.2480  0.1180
  586THF     C910614   3.844   2.991   1.729  0.2113  0.0506 -0.0462
  586THF    H1010615   3.645   2.984   1.800 -2.1453  1.4376 -0.9670
  586THF    H1110616   3.665   3.048   1.627  1.6208 -0.0013  0.4921
  586THF    H1210617   3.871   3.080   1.673  0.1230  0.7305  0.9706
  586THF    H1310618   3.870   3.016   1.832 -0.2480 -0.4410  0.1988
  587THF     O110619   1.340   4.043   1.753 -0.3415  0.7265 -0.2670
  587THF     C210620   1.237   4.098   1.839 -0.3398  0.1700  0.3374
  587THF     C310621   1.452   4.118   1.793  0.0734 -0.2467  0.8611
  587THF     H410622   1.147   4.039   1.829  0.2029 -0.7584  0.7872
  587THF     H510623   1.208   4.200   1.813 -1.0561  0.3148  1.6167
  587THF     H610624   1.544   4.065   1.767 -0.0743 -0.4583  0.7646
  587THF     H710625   1.447   4.219   1.752 -0.3029  0.1166  1.7853
  587THF     C810626   1.450   4.122   1.949  0.1474  0.2971  0.6827
  587THF     C910627   1.301   4.103   1.982 -1.2269 -0.1454 -0.2216
  587THF    H1010628   1.481   4.220   1.987 -0.6507  0.6274  0.5045
  587THF    H1110629   1.507   4.040   1.994  0.8784  0.5051  0.1477
  587THF    H1210630   1.289   4.011   2.040 -0.0720  0.6819  1.4099
  587THF    H1310631   1.266   4.191   2.037  0.3924  0.1660  0.3498
  588THF     O110632   5.354   0.857   5.426  0.2581  0.4074  0.0392
  588THF     C210633   5.383   0.926   5.550 -0.3921 -0.3368 -0.7428
  588THF     C310634   5.457   0.765   5.400 -0.5772  0.4579 -0.4739
  588THF     H410635   5.365   0.869   5.641  0.6889 -1.5813 -1.2776
  588THF     H510636   5.320   1.013   5.569 -2.0066 -1.4455 -0.7862
  588THF     H610637   5.426   0.687   5.469  0.8623  0.0411 -0.2844
  588THF     H710638   5.460   0.741   5.294 -1.4405 -0.2900 -0.3386
  588THF     C810639   5.576   0.856   5.430 -0.1944  0.8633 -0.9218
  588THF     C910640   5.530   0.950   5.550  0.2105  0.5519  0.4506
  588THF    H1010641   5.593   0.921   5.345  3.1324  2.2567  0.6218
  588THF    H1110642   5.674   0.810   5.445 -0.9294  0.2017  2.7513
  588THF    H1210643   5.580   0.920   5.642  0.1571 -1.3646 -0.0992
  588THF    H1310644   5.562   1.052   5.530 -0.2119  0.5291 -0.3473
  589THF     O110645   2.404   1.859   4.106 -0.2733 -0.1867 -0.1005
  589THF     C210646   2.358   1.758   4.198 -0.3375 -0.3661 -0.3508
  589THF     C310647   2.481   1.803   4.001  0.2230 -0.0361 -0.1697
  589THF     H410648   2.256   1.733   4.169 -0.9666 -0.0800  1.5132
  589THF     H510649   2.365   1.800   4.298  2.2641 -0.1827 -0.5502
  589THF     H610650   2.422   1.743   3.931  0.7550 -2.2133  1.1531
  589THF     H710651   2.560   1.864   3.957  2.7168 -0.9108  2.7561
  589THF     C810652   2.555   1.688   4.085 -0.1059 -0.5420  0.0798
  589THF     C910653   2.450   1.641   4.182 -0.7218 -0.3475  0.3211
  589THF    H1010654   2.642   1.729   4.135  1.3157 -1.2086 -1.7272
  589THF    H1110655   2.593   1.602   4.030  2.8773  0.4214  0.4505
  589THF    H1210656   2.397   1.554   4.143  0.1693 -0.2427 -1.1866
  589THF    H1310657   2.496   1.606   4.275 -0.8454  0.8454  0.8551
  590THF     O110658   3.206   3.633   1.935  0.0065 -0.1521  0.6410
  590THF     C210659   3.188   3.497   1.907 -0.2483 -0.2816 -0.7455
  590THF     C310660   3.323   3.667   1.862  0.1289 -0.1300  0.1820
  590THF     H410661   3.091   3.475   1.951  0.9941 -2.4421  1.1559
  590THF     H510662   3.260   3.433   1.959 -1.0112 -2.0475 -1.7477
  590THF     H610663   3.345   3.773   1.856 -3.2501  0.8137  1.7635
  590THF     H710664   3.400   3.627   1.928 -1.3764 -0.1459  2.0343
  590THF     C810665   3.318   3.593   1.728  1.0323  0.3264  0.2536
  590THF     C910666   3.207   3.494   1.753 -0.2547  0.2729 -0.4448
  590THF    H1010667   3.410   3.539   1.708  1.3041  1.1707 -0.9010
  590THF    H1110668   3.285   3.659   1.648 -0.6755  1.0565  1.4851
  590THF    H1210669   3.112   3.525   1.709 -1.6807 -0.7565  1.7553
  590THF    H1310670   3.233   3.398   1.709 -0.4470 -0.0128  0.0613
  591THF     O110671   2.408   0.441   3.448 -0.3779 -0.2779 -0.0102
  591THF     C210672   2.269   0.476   3.454  0.0586  0.2137  0.3249
  591THF     C310673   2.414   0.322   3.527  0.1802 -0.0794  0.2126
  591THF     H410674   2.215   0.434   3.369  0.3244  0.3042  0.1094
  591THF     H510675   2.258   0.580   3.425  1.2317  0.4348  0.6141
  591THF     H610676   2.402   0.239   3.457  1.2378 -1.0274  1.1212
  591THF     H710677   2.514   0.309   3.568  0.5857  1.1352 -0.3439
  591THF     C810678   2.302   0.336   3.636  0.1934  0.2127  0.5219
  591THF     C910679   2.206   0.445   3.588 -0.1611  0.0648 -0.2229
  591THF    H1010680   2.337   0.358   3.737 -1.0730  2.0011  0.6390
  591THF    H1110681   2.243   0.246   3.656 -3.6732  2.0743 -1.2993
  591THF    H1210682   2.106   0.406   3.573 -0.3410  0.2796  0.3530
  591THF    H1310683   2.194   0.531   3.654  2.1861  0.5320 -0.3123
  592THF     O110684   0.104   3.717   3.012 -0.6793  0.3036 -0.2191
  592THF     C210685   0.182   3.689   2.893  0.3865 -0.1140 -0.0958
  592THF     C310686  -0.033   3.743   2.970 -0.4635  0.2521 -0.0359
  592THF     H410687   0.270   3.628   2.909  0.0637 -0.7023 -0.5431
  592THF     H510688   0.226   3.782   2.855 -1.2665 -0.1515 -2.3573
  592THF     H610689  -0.103   3.692   3.035 -0.7759 -1.6897 -1.7951
  592THF     H710690  -0.035   3.852   2.971  2.2205  0.3772  0.6430
  592THF     C810691  -0.053   3.693   2.827  0.1180 -0.0178 -0.7058
  592THF     C910692   0.081   3.628   2.793  0.8108 -0.0811  0.0153
  592THF    H1010693  -0.068   3.780   2.763  2.5056  0.3715 -0.8341
  592THF    H1110694  -0.139   3.629   2.808  0.5610  0.1552 -3.7676
  592THF    H1210695   0.069   3.520   2.805  0.5655 -0.0995 -0.3408
  592THF    H1310696   0.104   3.652   2.689 -2.7950  0.5311 -0.7918
  593THF     O110697   0.535   2.112   3.204  0.5201  0.2375  0.5205
  593THF     C210698   0.398   2.149   3.239  0.3327  0.3848 -0.2440
  593THF     C310699   0.565   2.190   3.087  0.0209 -0.1072  0.4262
  593THF     H410700   0.392   2.239   3.300 -1.4882 -0.6716  1.2213
  593THF     H510701   0.348   2.071   3.296  0.5947 -1.4568 -2.3764
  593THF     H610702   0.564   2.296   3.113 -0.7327  0.3629 -1.3658
  593THF     H710703   0.660   2.163   3.041  0.1034  0.3281  0.3378
  593THF     C810704   0.444   2.159   2.998  0.2094 -0.1473 -0.8260
  593THF     C910705   0.327   2.140   3.104  0.0622  0.6895  0.7878
  593THF    H1010706   0.460   2.068   2.940 -0.7558 -0.5466 -0.4969
  593THF    H1110707   0.412   2.232   2.924  0.2818  0.2196 -0.5001
  593THF    H1210708   0.250   2.216   3.085 -2.2466 -1.9610 -1.3593
  593THF    H1310709   0.282   2.042   3.088 -0.0093  0.6762  1.0748
  594THF     O110710   5.311   3.400   1.626  0.3090  0.3252  0.2059
  594THF     C210711   5.327   3.543   1.620 -0.4602  0.4679  0.3062
  594THF     C310712   5.389   3.355   1.734 -0.2929  0.0324  0.7209
  594THF     H410713   5.250   3.585   1.685  0.9743  0.6456  1.9752
  594THF     H510714   5.309   3.581   1.519 -0.9281  0.6386  0.4510
  594THF     H610715   5.339   3.379   1.828 -0.7099  0.9047  0.2949
  594THF     H710716   5.419   3.251   1.739  1.6203  0.4687 -0.5799
  594THF     C810717   5.520   3.431   1.712 -0.1144  0.2337 -0.4180
  594THF     C910718   5.468   3.570   1.675  0.0247 -0.7545 -1.1722
  594THF    H1010719   5.572   3.382   1.630 -1.3762 -0.5198 -0.7823
  594THF    H1110720   5.583   3.425   1.801 -1.5740 -0.9416  0.5853
  594THF    H1210721   5.450   3.628   1.765 -3.0087 -1.7576 -1.0222
  594THF    H1310722   5.542   3.616   1.609 -0.6306 -0.4079 -1.6814
  595THF     O110723   0.620   1.099   4.846  0.4837  0.2342  0.1317
  595THF     C210724   0.552   1.133   4.968 -0.6603 -0.1893  0.6605
  595THF     C310725   0.585   0.965   4.814  0.9436 -0.0513 -0.3342
  595THF     H410726   0.540   1.240   4.986 -1.6052 -0.5915  2.6548
  595THF     H510727   0.587   1.075   5.053 -0.1760 -0.8645  0.0157
  595THF     H610728   0.593   0.937   4.709 -1.8828 -0.1850 -0.6016
  595THF     H710729   0.655   0.900   4.867 -0.0197  0.0884  1.1791
  595THF     C810730   0.442   0.936   4.869  0.3419  0.4881  0.1907
  595THF     C910731   0.410   1.075   4.940 -0.9041  0.2386 -0.0530
  595THF    H1010732   0.440   0.850   4.936  1.5420 -0.6081 -1.1175
  595THF    H1110733   0.373   0.915   4.787  0.4702  2.7157 -0.5732
  595THF    H1210734   0.363   1.147   4.872 -2.4424  2.4171  3.0960
  595THF    H1310735   0.353   1.070   5.032  2.0186 -0.9594  1.8250
  596THF     O110736   1.105   5.298   0.167  0.1328 -0.2013  0.2329
  596THF     C210737   0.981   5.261   0.106 -0.1198  0.4123 -0.0303
  596THF     C310738   1.076   5.386   0.279 -0.2056  0.2044  0.3238
  596THF     H410739   0.948   5.170   0.155 -2.3658  0.8959 -0.5281
  596THF     H510740   0.976   5.244  -0.002  1.7709  1.2518 -0.2866
  596THF     H610741   1.111   5.345   0.374 -1.6938  0.3498  0.9598
  596THF     H710742   1.142   5.473   0.275  1.7641 -1.2136  0.1682
  596THF     C810743   0.925   5.397   0.285 -1.1713  0.4338  0.9867
  596THF     C910744   0.869   5.360   0.146  0.0740  0.4982 -0.1354
  596THF    H1010745   0.907   5.503   0.300  1.1673  1.1280 -0.5915
  596THF    H1110746   0.885   5.329   0.361  1.6999 -0.5356  1.7737
  596THF    H1210747   0.772   5.312   0.157  0.5576 -0.3091  0.7378
  596THF    H1310748   0.866   5.447   0.081 -0.6899  0.4241 -0.2052
  597THF     O110749   1.326   5.263   3.870  0.5185 -0.0557 -0.1237
  597THF     C210750   1.193   5.235   3.917 -0.4571  0.3489  0.0130
  597THF     C310751   1.419   5.254   3.981  0.3610 -0.1609  0.3220
  597THF     H410752   1.110   5.218   3.848  0.2928 -2.0525 -0.3852
  597THF     H510753   1.166   5.310   3.992  2.3793  0.9824  0.5135
  597THF     H610754   1.506   5.198   3.949 -0.6471 -1.4806 -0.2070
  597THF     H710755   1.446   5.356   4.009 -0.9152  0.2292  0.2219
  597THF     C810756   1.339   5.174   4.085 -0.3638 -0.0358  0.1580
  597THF     C910757   1.221   5.113   4.005  0.0421  0.1262 -0.2978
  597THF    H1010758   1.295   5.232   4.166  2.3555  0.5217  1.3242
  597THF    H1110759   1.397   5.095   4.132 -1.1525  1.4994  4.1503
  597THF    H1210760   1.244   5.023   3.948 -0.2714 -1.2090  1.6017
  597THF    H1310761   1.132   5.105   4.068  0.7147  1.9591  0.9644
  598THF     O110762   4.456   5.059   5.443  0.7860  0.7941  0.0300
  598THF     C210763   4.499   5.087   5.313 -0.3376 -1.1023  0.0288
  598THF     C310764   4.564   5.015   5.525  0.4161  0.2005  0.2231
  598THF     H410765   4.529   5.191   5.301  0.5101 -1.3039  0.3463
  598THF     H510766   4.432   5.043   5.240 -0.5783  1.3753 -1.3088
  598THF     H610767   4.628   5.103   5.528  0.0889  0.4420  0.1835
  598THF     H710768   4.563   4.978   5.628  2.3060  0.1463  0.2668
  598THF     C810769   4.628   4.925   5.420 -0.4841  0.5322  0.4960
  598THF     C910770   4.627   5.004   5.291 -0.7579  0.3042  0.1206
  598THF    H1010771   4.574   4.832   5.402  0.5310  0.4738 -2.9806
  598THF    H1110772   4.729   4.899   5.451 -0.2939 -1.2229 -1.4003
  598THF    H1210773   4.714   5.070   5.285  0.0798 -0.7216  0.7972
  598THF    H1310774   4.622   4.946   5.199  0.0380 -0.2443  0.4172
  599THF     O110775   0.827   0.749   5.247  0.8952  0.1080 -0.3160
  599THF     C210776   0.730   0.795   5.155 -0.7809 -0.3834 -0.5325
  599THF     C310777   0.762   0.666   5.343  0.0904  0.0481  0.4924
  599THF     H410778   0.773   0.825   5.060 -0.0020  0.8547  0.1824
  599THF     H510779   0.668   0.878   5.190 -0.3478 -0.3306  0.1179
  599THF     H610780   0.840   0.608   5.392  0.9061  1.3729  0.8028
  599THF     H710781   0.717   0.732   5.417 -0.1381  0.4358  0.0166
  599THF     C810782   0.658   0.591   5.259  0.6776  0.5182  0.2983
  599THF     C910783   0.653   0.672   5.128 -0.6142 -0.1375  0.7317
  599THF    H1010784   0.564   0.588   5.315  1.0251  0.3429  0.8866
  599THF    H1110785   0.681   0.484   5.263 -2.7620 -0.3439  0.3313
  599THF    H1210786   0.698   0.616   5.046 -1.7871 -0.6886  0.4392
  599THF    H1310787   0.547   0.685   5.104 -0.8405 -0.2418  1.6443
  600THF     O110788   0.298   5.274   0.296 -0.2540 -0.3155 -0.4094
  600THF     C210789   0.252   5.133   0.310  0.7889 -0.5937 -0.4285
  600THF     C310790   0.255   5.323   0.169  0.0040 -0.5678 -0.2878
  600THF     H410791   0.221   5.132   0.414  0.8325 -0.7195 -0.4159
  600THF     H510792   0.335   5.066   0.289  0.3508 -1.2261 -0.1820
  600THF     H610793   0.249   5.431   0.170  0.5820 -0.5333 -0.1667
  600THF     H710794   0.321   5.292   0.088 -1.5214 -0.7666 -1.4952
  600THF     C810795   0.119   5.261   0.152 -0.2227 -0.2565  0.5348
  600THF     C910796   0.147   5.123   0.202 -0.0328  0.2033  0.1389
  600THF    H1010797   0.072   5.268   0.053 -1.9343 -1.4719  1.2211
  600THF    H1110798   0.047   5.299   0.224  3.1127 -0.5027  4.3289
  600THF    H1210799   0.063   5.069   0.245  1.2517 -3.4152 -1.3931
  600THF    H1310800   0.179   5.060   0.119 -1.9238  0.9670 -1.2464
  601THF     O110801   4.972   0.533   1.810  0.5595  0.3737  0.7119
  601THF     C210802   4.828   0.552   1.816  0.4946 -0.3172 -0.0315
  601THF     C310803   5.002   0.419   1.887 -0.4605 -0.1555 -0.1495
  601THF     H410804   4.774   0.496   1.739  0.4825 -0.3043 -0.0324
  601THF     H510805   4.801   0.655   1.793 -1.3111 -0.6474  0.4000
  601THF     H610806   4.999   0.326   1.830 -1.1306 -1.6205  2.1153
  601THF     H710807   5.102   0.437   1.927  0.3479  1.0110 -2.5101
  601THF     C810808   4.885   0.403   1.987  0.7877 -0.1219 -0.1374
  601THF     C910809   4.802   0.526   1.967 -0.2893  0.4827  0.0195
  601THF    H1010810   4.917   0.402   2.091 -0.6657 -0.7794  0.3306
  601THF    H1110811   4.825   0.313   1.979  0.0075  0.4514 -0.9034
  601THF    H1210812   4.696   0.518   1.988 -0.8845  1.4262 -2.2902
  601THF    H1310813   4.836   0.612   2.025  0.4436 -0.3212  0.8107
  602THF     O110814   0.014   0.144   5.311 -0.8472  0.7005 -0.0346
  602THF     C210815  -0.099   0.057   5.307  1.2637  0.5787  0.2443
  602THF     C310816   0.086   0.144   5.185 -0.1878  0.9431  0.0889
  602THF     H410817  -0.183   0.101   5.253  0.1770  0.6690  1.9250
  602THF     H510818  -0.128   0.028   5.408  0.8409 -0.4693 -0.1595
  602THF     H610819   0.055   0.240   5.142 -2.5968  0.3440  0.3339
  602THF     H710820   0.193   0.142   5.202 -0.2441 -2.0047  0.5861
  602THF     C810821   0.036   0.018   5.110  0.7357  0.4136  0.2154
  602THF     C910822  -0.034  -0.051   5.221  0.2711 -0.0371 -0.3876
  602THF    H1010823   0.116  -0.041   5.064  0.1236  0.3978 -0.8585
  602THF    H1110824  -0.044   0.045   5.041  0.6736  1.9749  0.8516
  602THF    H1210825  -0.107  -0.117   5.173  0.6466 -0.5457 -0.2654
  602THF    H1310826   0.031  -0.108   5.288 -1.8907 -1.0676  0.9524
  603THF     O110827   1.531   2.656   1.150 -0.0840  0.2294  0.4512
  603THF     C210828   1.632   2.747   1.169 -0.2366 -0.2676 -0.4958
  603THF     C310829   1.420   2.732   1.192 -0.0638 -0.0212 -0.2890
  603THF     H410830   1.713   2.697   1.117  0.8819 -1.0588  1.8609
  603THF     H510831   1.648   2.759   1.276 -0.1642 -2.9801 -0.1452
  603THF     H610832   1.326   2.681   1.169 -0.9931  0.6344  1.7803
  603THF     H710833   1.409   2.755   1.298 -0.6585  0.3042 -0.4111
  603THF     C810834   1.441   2.864   1.115  0.6798 -0.1002 -0.2677
  603THF     C910835   1.588   2.884   1.114  0.2526 -0.0991 -0.3416
  603THF    H1010836   1.392   2.953   1.153 -0.5193 -1.1720  0.7723
  603THF    H1110837   1.407   2.838   1.015 -0.9463 -1.8355  0.6852
  603THF    H1210838   1.623   2.898   1.012 -0.5741  0.0226 -0.6182
  603THF    H1310839   1.612   2.971   1.175  1.1378  0.0532 -0.8930
  604THF     O110840   4.130   1.308   2.516  0.3650  0.1043  0.0566
  604THF     C210841   4.258   1.242   2.506 -0.5773 -0.0683  0.6609
  604THF     C310842   4.079   1.332   2.380 -0.4368 -1.0211 -0.2125
  604THF     H410843   4.238   1.140   2.537  1.1849 -0.7189 -0.1736
  604THF     H510844   4.339   1.290   2.562  2.0435 -1.9759 -1.2166
  604THF     H610845   3.973   1.307   2.378 -0.9886  0.4567  3.4919
  604THF     H710846   4.093   1.439   2.360  2.1393 -1.5980 -1.9551
  604THF     C810847   4.157   1.250   2.286  0.1573  0.0267  0.2771
  604THF     C910848   4.288   1.245   2.358  0.1391  0.3879 -1.1598
  604THF    H1010849   4.170   1.293   2.187  1.2555  0.5046  0.6146
  604THF    H1110850   4.108   1.153   2.283 -1.6600  0.8789  1.2149
  604THF    H1210851   4.354   1.168   2.321  1.5234 -0.4332  2.5933
  604THF    H1310852   4.341   1.336   2.330  0.5286  0.1495 -1.1934
  605THF     O110853   4.017   2.827   3.409 -0.0858 -0.1978 -0.1141
  605THF     C210854   3.954   2.957   3.425 -0.2139  0.1789 -0.2154
  605THF     C310855   4.130   2.827   3.491  0.6463 -0.4508  0.5771
  605THF     H410856   3.881   2.953   3.507 -0.0126 -0.0392 -0.0437
  605THF     H510857   3.910   2.987   3.330  0.3628 -0.5104 -0.7063
  605THF     H610858   4.119   2.766   3.580 -0.7751  0.3709  0.9751
  605THF     H710859   4.210   2.785   3.429  1.7284  2.3142 -0.0148
  605THF     C810860   4.176   2.963   3.522 -0.0075  0.1271  0.2382
  605THF     C910861   4.070   3.050   3.462  0.2726 -0.3991 -0.0781
  605THF    H1010862   4.275   2.992   3.488  1.1222 -2.7826  0.7539
  605THF    H1110863   4.176   2.979   3.630 -0.2767 -0.1624  0.2846
  605THF    H1210864   4.034   3.135   3.519 -0.7290 -0.2373 -0.9115
  605THF    H1310865   4.101   3.095   3.368 -0.2241 -0.4162 -0.2574
  606THF     O110866   3.136   4.638   4.689 -0.1332  0.2194 -0.0761
  606THF     C210867   3.003   4.624   4.737 -0.1321  0.2190 -0.6178
  606THF     C310868   3.149   4.528   4.597  0.3611 -0.3216 -0.3554
  606THF     H410869   2.972   4.697   4.812 -0.2775 -1.3558  0.9366
  606THF     H510870   2.993   4.524   4.778  0.9803 -0.4330 -1.8536
  606THF     H610871   3.237   4.539   4.533  0.1734 -0.2884 -0.6096
  606THF     H710872   3.155   4.430   4.645  1.2958 -1.4707 -2.6591
  606THF     C810873   3.012   4.538   4.523  0.1650  0.1178  0.4126
  606THF     C910874   2.919   4.607   4.614  0.2319  0.2524 -0.8138
  606THF    H1010875   2.961   4.447   4.490  0.3786  0.4723 -0.9729
  606THF    H1110876   3.027   4.590   4.428 -2.0305  0.3371  0.1261
  606THF    H1210877   2.877   4.691   4.559 -1.4259 -2.4385 -3.9750
  606THF    H1310878   2.831   4.542   4.621 -0.8982  1.3351 -3.6946
  607THF     O110879   4.701   3.896   4.028  0.0838  0.5289  0.5362
  607THF     C210880   4.652   3.888   4.156  0.6682  0.0156 -0.2345
  607THF     C310881   4.836   3.938   4.041  0.9977  0.7572 -0.1122
  607THF     H410882   4.684   3.794   4.202  2.3793  0.1581 -1.0510
  607THF     H510883   4.544   3.896   4.168  0.2839 -0.9715 -2.4562
  607THF     H610884   4.899   3.859   4.079  1.1065  1.1790  0.6035
  607THF     H710885   4.863   3.967   3.939  1.9785 -0.6450 -0.2747
  607THF     C810886   4.831   4.050   4.138  0.6210 -0.1248 -0.4402
  607THF     C910887   4.718   4.004   4.226 -0.3619  0.1490 -0.1754
  607THF    H1010888   4.820   4.149   4.096  1.5939 -0.4384 -1.4740
  607THF    H1110889   4.924   4.048   4.195  0.3054 -0.5157  0.0808
  607THF    H1210890   4.768   3.973   4.318  1.4938  1.5076 -0.6779
  607THF    H1310891   4.656   4.086   4.264  1.4663  0.8127  1.5584
  608THF     O110892   4.318   2.779   3.131  0.2018 -0.3652  0.3929
  608THF     C210893   4.305   2.695   3.021  0.1815 -0.0800  0.5012
  608THF     C310894   4.220   2.879   3.126 -0.0124 -0.1819  0.6780
  608THF     H410895   4.217   2.634   3.043 -0.8627  1.2739  0.2204
  608THF     H510896   4.393   2.637   2.994 -0.2250 -0.2177 -0.5982
  608THF     H610897   4.129   2.824   3.152 -0.6991  0.3638 -0.4898
  608THF     H710898   4.240   2.965   3.191  0.8374 -0.5721  0.9392
  608THF     C810899   4.212   2.920   2.980  0.0183  0.6174 -0.3481
  608THF     C910900   4.284   2.802   2.911  0.2970 -0.6270 -0.2118
  608THF    H1010901   4.262   3.016   2.965 -1.0724  1.0000 -1.9442
  608THF    H1110902   4.108   2.929   2.947  0.1960  2.2457 -0.5515
  608THF    H1210903   4.235   2.753   2.827 -0.7640 -0.0448  0.0546
  608THF    H1310904   4.383   2.829   2.875 -0.9326 -0.8078 -4.1956
  609THF     O110905   4.991   0.120   2.104 -0.2176  0.6911 -0.1149
  609THF     C210906   4.968   0.076   2.233  0.4991 -0.6500  0.2980
  609THF     C310907   5.108   0.067   2.058 -0.8563 -0.7308  0.4088
  609THF     H410908   4.859   0.079   2.234  0.4849  2.5996  0.2676
  609THF     H510909   4.993   0.151   2.309 -1.1398 -0.5208  0.7631
  609THF     H610910   5.106   0.065   1.949  1.6534 -0.1340  0.3083
  609THF     H710911   5.181   0.138   2.094 -0.3809 -1.3724  0.7301
  609THF     C810912   5.103  -0.075   2.117 -0.4369 -0.6853  0.7051
  609THF     C910913   5.042  -0.054   2.252 -0.1525 -0.1397  0.5043
  609THF    H1010914   5.198  -0.128   2.124 -0.3931 -0.7699 -0.2649
  609THF    H1110915   5.041  -0.140   2.055 -2.3394  0.6007  1.1813
  609THF    H1210916   4.970  -0.129   2.285 -0.2165 -0.5192 -0.4781
  609THF    H1310917   5.130  -0.054   2.316  0.7850 -0.3467 -0.7421
  610THF     O110918   2.530   5.102   4.090  0.1030 -0.0115 -0.1090
  610THF     C210919   2.521   5.210   4.184 -0.0307  0.6070 -0.2224
  610THF     C310920   2.477   4.992   4.162  0.2327  0.0484 -0.1181
  610THF     H410921   2.511   5.300   4.123 -0.5221 -0.5817 -1.9978
  610THF     H510922   2.609   5.221   4.247 -1.1644  1.3719  1.2792
  610THF     H610923   2.479   4.906   4.096  1.1752 -1.1623  1.4179
  610THF     H710924   2.539   4.971   4.250 -0.3990  0.1707  0.3659
  610THF     C810925   2.348   5.045   4.219  0.6102  0.3494 -0.1658
  610THF     C910926   2.385   5.185   4.257  0.1833 -0.2122  0.1866
  610THF    H1010927   2.316   4.989   4.307  0.7829 -1.9231 -1.4586
  610THF    H1110928   2.257   5.041   4.159 -1.4914  0.4659  2.7934
  610THF    H1210929   2.304   5.243   4.213 -0.8745 -1.9609 -0.2782
  610THF    H1310930   2.379   5.206   4.364 -2.1452  1.9766 -0.2850
  611THF     O110931   3.962   1.420   3.779  0.0552  0.3311 -0.4356
  611THF     C210932   3.917   1.359   3.907 -0.4670  0.0852 -0.1309
  611THF     C310933   3.861   1.484   3.714  0.2902  0.5954  0.1326
  611THF     H410934   3.920   1.449   3.968 -0.7913  0.0270 -0.0306
  611THF     H510935   3.984   1.281   3.942 -1.0251 -0.5796 -0.5183
  611THF     H610936   3.843   1.579   3.763 -2.7640  0.7809 -1.1183
  611THF     H710937   3.884   1.494   3.608 -1.1730 -1.7223 -0.4778
  611THF     C810938   3.745   1.390   3.738 -0.1612  0.1919  0.1015
  611THF     C910939   3.782   1.311   3.866  0.1806  0.1795 -0.2860
  611THF    H1010940   3.753   1.326   3.650  0.1860 -1.0852  1.0356
  611THF    H1110941   3.643   1.427   3.741 -0.2822 -0.1873  1.3756
  611THF    H1210942   3.710   1.330   3.946 -0.6613 -1.7715 -0.5227
  611THF    H1310943   3.780   1.204   3.849  0.2275  0.2747 -0.9065
  612THF     O110944   5.284   2.449   5.200 -0.5259 -0.1519 -0.0657
  612THF     C210945   5.266   2.575   5.138  0.0001  0.3298  0.4228
  612THF     C310946   5.333   2.475   5.331 -0.5969  0.6720  0.2786
  612THF     H410947   5.187   2.630   5.190  0.5987  2.7020 -1.0504
  612THF     H510948   5.254   2.561   5.031  2.5428 -1.4001  0.2772
  612THF     H610949   5.255   2.512   5.397 -0.9602  0.2985  0.0620
  612THF     H710950   5.385   2.390   5.377  3.2387  3.1140  0.9344
  612THF     C810951   5.438   2.578   5.301 -1.2111  0.2868 -0.2762
  612THF     C910952   5.399   2.641   5.175  0.7043 -1.0451  0.9140
  612THF    H1010953   5.532   2.524   5.287 -1.0924  0.8029 -1.5938
  612THF    H1110954   5.465   2.646   5.382  0.9644 -0.8780  0.0594
  612THF    H1210955   5.393   2.749   5.186  0.9046 -1.0575  1.1375
  612THF    H1310956   5.467   2.606   5.096 -1.3580  1.2867 -2.1131
  613THF     O110957   5.142   0.688   4.001 -0.2391  0.3653  0.5910
  613THF     C210958   5.020   0.720   4.073 -0.0539  0.1328 -0.5362
  613THF     C310959   5.190   0.806   3.943  0.7224 -0.2953  0.2297
  613THF     H410960   5.027   0.649   4.155 -0.8549  1.8456  1.0888
  613THF     H510961   4.927   0.705   4.018 -0.8586 -0.9629  1.0450
  613THF     H610962   5.295   0.805   3.914  0.8697  0.6010  0.7124
  613THF     H710963   5.137   0.834   3.852  2.0124  0.9085 -0.1819
  613THF     C810964   5.164   0.914   4.050 -0.5345 -0.7120  1.0391
  613THF     C910965   5.028   0.872   4.108 -0.0983  0.5789  0.5683
  613THF    H1010966   5.170   1.018   4.018  0.9436 -0.8816  0.7110
  613THF    H1110967   5.242   0.900   4.124  0.5981  0.0105  0.0109
  613THF    H1210968   5.023   0.890   4.216  2.5056 -2.1940  1.2976
  613THF    H1310969   4.945   0.925   4.061  0.7173  1.4813  0.1367
  614THF     O110970   2.820   1.405   2.752  0.3277 -0.2549 -0.2966
  614THF     C210971   2.720   1.468   2.678 -0.7545 -0.4957 -0.7323
  614THF     C310972   2.951   1.460   2.726 -0.4877 -0.2804 -0.2469
  614THF     H410973   2.687   1.556   2.733  3.3632  0.0632  1.2196
  614THF     H510974   2.635   1.399   2.673 -1.4452  0.3802 -1.3502
  614THF     H610975   2.983   1.531   2.803  0.9864 -1.1553 -0.0176
  614THF     H710976   3.025   1.380   2.725 -1.2553 -0.9935 -1.6057
  614THF     C810977   2.937   1.536   2.591  0.3905  0.3726  0.1381
  614THF     C910978   2.795   1.498   2.540  0.0616 -0.1106 -0.1236
  614THF    H1010979   3.012   1.504   2.519  0.8479  0.2337  0.6651
  614THF    H1110980   2.932   1.644   2.603  1.7784  0.2680  2.3302
  614THF    H1210981   2.744   1.580   2.489  0.7145 -0.0686 -0.7293
  614THF    H1310982   2.799   1.414   2.471 -1.9442  0.1842 -0.6593
  615THF     O110983   2.605   2.546   3.443  0.6202  0.5039 -0.0040
  615THF     C210984   2.658   2.606   3.561  0.2721 -0.2326  0.4648
  615THF     C310985   2.655   2.625   3.337 -0.0588  0.0935  0.4724
  615THF     H410986   2.765   2.584   3.560  0.3466  0.0498 -1.4608
  615THF     H510987   2.618   2.565   3.654  1.4046  0.0260  1.0831
  615THF     H610988   2.763   2.618   3.330 -0.0664 -0.0106  0.4475
  615THF     H710989   2.618   2.595   3.239 -0.2234  1.4292  0.1171
  615THF     C810990   2.626   2.768   3.384 -0.4313  0.9024 -0.4524
  615THF     C910991   2.630   2.751   3.537  0.0616 -0.2796 -0.4888
  615THF    H1010992   2.528   2.807   3.357  0.1500  1.6409 -1.5623
  615THF    H1110993   2.700   2.843   3.356  1.8266 -1.3777 -0.9817
  615THF    H1210994   2.709   2.808   3.587 -0.3016 -1.9027  2.1517
  615THF    H1310995   2.535   2.779   3.581 -0.2850 -2.7345  0.4383
  616THF     O110996   5.076   1.810   5.372 -0.6972  0.4460 -0.2886
  616THF     C210997   4.997   1.693   5.341 -0.0258 -0.5985  0.3300
  616THF     C310998   5.148   1.844   5.258  0.6835 -0.1953 -0.3123
  616THF     H410999   4.902   1.701   5.395 -1.0876 -1.2676 -1.3691
  616THF     H511000   5.052   1.606   5.377 -0.9387 -0.9115  1.0192
  616THF     H611001   5.178   1.949   5.250  0.7553 -0.3675 -3.5311
  616THF     H711002   5.242   1.797   5.229  1.2367 -0.1904  1.3821
  616THF     C811003   5.031   1.838   5.157 -0.6824 -0.7861 -0.1002
  616THF     C911004   4.972   1.700   5.189  0.1683 -0.2537  0.6849
  616THF    H1011005   5.067   1.864   5.058 -0.7808 -1.8731 -0.4333
  616THF    H1111006   4.951   1.912   5.165  0.4552  0.5021 -0.2652
  616THF    H1211007   4.867   1.688   5.164 -0.2795  2.4077  1.0399
  616THF    H1311008   5.028   1.622   5.137 -1.8978 -1.2728 -0.1125
  617THF     O111009   5.461   3.033   4.607 -0.0817 -0.2552 -0.1368
  617THF     C211010   5.531   3.111   4.506  0.0874  0.0941  0.6426
  617THF     C311011   5.406   3.131   4.695  0.0679  0.5061 -0.3444
  617THF     H411012   5.481   3.101   4.410  0.3663 -0.3372  0.5422
  617THF     H511013   5.628   3.066   4.486  0.7022  0.6366  2.2410
  617THF     H611014   5.315   3.163   4.644 -0.0944 -1.7383 -1.6239
  617THF     H711015   5.385   3.088   4.793 -0.5654  3.0706  0.7118
  617THF     C811016   5.510   3.241   4.695 -0.0022  0.6830  0.4693
  617THF     C911017   5.546   3.257   4.553 -0.1781 -0.3128 -0.0808
  617THF    H1011018   5.591   3.203   4.758 -0.6983 -0.4573  0.6947
  617THF    H1111019   5.473   3.335   4.737  3.5262  1.7070  1.7140
  617THF    H1211020   5.469   3.312   4.499 -0.7633  0.4053  1.4366
  617THF    H1311021   5.644   3.303   4.540 -0.5768  0.7787  0.5977
  618THF     O111022   0.504   1.892   3.694 -0.6533  0.2203  0.6692
  618THF     C211023   0.472   1.883   3.555  0.0843  1.2407  0.1857
  618THF     C311024   0.407   1.982   3.743 -0.1605  0.5726  0.0862
  618THF     H411025   0.526   1.800   3.510  0.0733  0.1619  2.0625
  618THF     H511026   0.508   1.982   3.524 -0.2185  1.0109 -0.9373
  618THF     H611027   0.399   1.998   3.851 -0.8340  0.6458  0.0338
  618THF     H711028   0.429   2.084   3.713 -1.4415  0.0191 -3.1363
  618THF     C811029   0.274   1.947   3.679 -0.4345  0.2898  0.4957
  618THF     C911030   0.319   1.876   3.554  0.5165 -0.5013  0.9187
  618THF    H1011031   0.221   2.038   3.651  3.2631  2.0896 -1.3980
  618THF    H1111032   0.215   1.888   3.750 -1.5850 -0.5174 -1.0737
  618THF    H1211033   0.273   1.778   3.566 -0.1687 -0.3857 -0.6151
  618THF    H1311034   0.280   1.923   3.464 -1.8671  0.2743  2.2639
  619THF     O111035   0.581   0.867   2.734 -0.3520  0.3380 -0.5756
  619THF     C211036   0.590   1.008   2.722 -0.4451  0.9779 -0.3060
  619THF     C311037   0.671   0.810   2.642  0.5446 -0.2275 -0.2812
  619THF     H411038   0.670   1.027   2.793 -0.5024 -0.9159  0.3298
  619THF     H511039   0.500   1.063   2.747 -0.7295  0.2813  0.2387
  619THF     H611040   0.767   0.813   2.692  0.1999  0.2869  0.3680
  619THF     H711041   0.654   0.703   2.626  1.6169 -0.1913 -1.8131
  619THF     C811042   0.663   0.906   2.526  0.0183  0.5184 -0.4125
  619THF     C911043   0.643   1.039   2.583 -0.2223 -0.5908  0.3381
  619THF    H1011044   0.576   0.870   2.470 -1.7087  2.6037  0.7740
  619THF    H1111045   0.744   0.902   2.454 -0.4656 -0.4215 -0.9210
  619THF    H1211046   0.740   1.086   2.595 -0.4959 -0.4937  2.5033
  619THF    H1311047   0.572   1.095   2.522 -0.1064 -2.0291 -1.1771
  620THF     O111048   1.396   2.400   0.160 -0.3933 -0.1241  0.2883
  620THF     C211049   1.288   2.421   0.067  0.0021  0.7276 -0.4537
  620THF     C311050   1.344   2.409   0.285  0.7069 -0.9388  0.8946
  620THF     H411051   1.293   2.340  -0.006 -1.2732  0.1704  0.0499
  620THF     H511052   1.296   2.513   0.010  0.5398  1.1181  0.2404
  620THF     H611053   1.414   2.359   0.352  1.4153  0.2071  1.0380
  620THF     H711054   1.343   2.514   0.317 -2.3603 -0.6372  0.1002
  620THF     C811055   1.206   2.349   0.273 -0.1614  0.0280  0.4915
  620THF     C911056   1.162   2.408   0.147 -0.2307 -0.0082  0.0497
  620THF    H1011057   1.142   2.366   0.360 -0.6072  2.9508 -0.3141
  620THF    H1111058   1.205   2.241   0.255  2.2498  0.0989 -0.4419
  620THF    H1211059   1.089   2.347   0.095 -0.7964  1.5163 -1.0318
  620THF    H1311060   1.124   2.509   0.168 -2.5725 -0.1895 -2.7817
  621THF     O111061   4.125   3.804   4.045 -0.1658  0.5779 -0.7624
  621THF     C211062   4.139   3.758   3.919  0.0021  0.1843  0.1764
  621THF     C311063   3.987   3.801   4.075 -0.6731 -0.2814  0.4469
  621THF     H411064   4.157   3.650   3.924  0.1329  0.1373 -1.0805
  621THF     H511065   4.225   3.802   3.868 -0.7239 -0.4932 -1.7156
  621THF     H611066   3.977   3.700   4.115 -3.2827 -0.2715 -0.0402
  621THF     H711067   3.972   3.866   4.162  3.3723 -0.6281  1.6081
  621THF     C811068   3.906   3.817   3.951  0.1386  0.4546  0.0296
  621THF     C911069   4.008   3.795   3.845  0.2256 -0.5477 -0.0267
  621THF    H1011070   3.858   3.914   3.937 -0.6150  0.0728 -0.0521
  621THF    H1111071   3.837   3.734   3.950  2.2310 -1.3955  0.4799
  621THF    H1211072   3.972   3.726   3.768 -0.9240  0.8988 -0.8354
  621THF    H1311073   4.021   3.889   3.792 -0.3997 -0.6622 -0.3987
  622THF     O111074   0.266   2.820   0.755 -0.0476  0.3371  0.3568
  622THF     C211075   0.208   2.949   0.717  0.3624 -0.1767 -0.5669
  622THF     C311076   0.234   2.725   0.655 -0.0461 -0.1704  0.1090
  622THF     H411077   0.279   3.013   0.665  0.3414 -0.4581 -0.9440
  622THF     H511078   0.172   2.998   0.807 -1.0208 -1.2030 -0.5285
  622THF     H611079   0.299   2.748   0.570  1.1268  0.9391  1.2742
  622THF     H711080   0.254   2.624   0.690 -1.5289 -0.3648  0.4753
  622THF     C811081   0.088   2.755   0.622  0.4302 -0.6923 -0.1759
  622THF     C911082   0.089   2.908   0.624 -0.1896 -0.6619 -0.4046
  622THF    H1011083   0.037   2.716   0.710 -0.9105 -1.6390 -1.3222
  622THF    H1111084   0.063   2.713   0.524  1.3668  1.8904 -1.6167
  622THF    H1211085   0.097   2.946   0.523 -0.3155 -2.0060 -0.9377
  622THF    H1311086  -0.005   2.949   0.662  0.7391 -0.1427  1.4949
  623THF     O111087   5.220   0.333   0.036 -0.4010  0.4702 -0.2593
  623THF     C211088   5.179   0.459   0.076 -0.5280 -0.3295  0.1698
  623THF     C311089   5.108   0.252   0.016  0.3898 -0.0196 -0.1684
  623THF     H411090   5.146   0.504  -0.017  0.9053  0.2549 -0.0843
  623THF     H511091   5.253   0.531   0.112 -1.6964  0.9624  0.0941
  623THF     H611092   5.056   0.291  -0.071 -0.7733 -1.1445 -0.0008
  623THF     H711093   5.129   0.147  -0.003  2.5760  0.7040 -2.2237
  623THF     C811094   5.038   0.280   0.151 -0.7512 -0.5361 -0.1436
  623THF     C911095   5.069   0.422   0.176  0.2429  0.0737  0.5304
  623THF    H1011096   5.069   0.206   0.224  2.1981 -0.1522 -0.8714
  623THF    H1111097   4.931   0.259   0.151 -1.6285  2.8647 -2.8725
  623THF    H1211098   4.981   0.487   0.171 -0.0361 -0.2520  1.1532
  623THF    H1311099   5.097   0.428   0.281  2.3171 -1.7476  0.1368
  624THF     O111100   2.259   2.645   3.961  0.0149  0.7818  0.3628
  624THF     C211101   2.343   2.723   4.051 -0.0037 -0.4635  0.9876
  624THF     C311102   2.337   2.566   3.870 -0.2369  0.1147  0.1078
  624THF     H411103   2.314   2.690   4.150  0.2103 -2.3396  0.4530
  624THF     H511104   2.326   2.829   4.032  1.7722 -0.0642  1.4423
  624THF     H611105   2.296   2.472   3.834 -1.3922  0.8708 -0.5871
  624THF     H711106   2.365   2.632   3.788  1.3665 -0.7272 -0.0743
  624THF     C811107   2.459   2.543   3.954 -0.5100  0.6156  0.0673
  624THF     C911108   2.480   2.678   4.021  0.8606 -0.3768  0.0409
  624THF    H1011109   2.554   2.522   3.904 -0.7636  0.3346 -0.3050
  624THF    H1111110   2.432   2.462   4.021 -2.2254  0.5042 -0.6867
  624THF    H1211111   2.548   2.668   4.105  0.2916 -0.8894  0.4502
  624THF    H1311112   2.527   2.746   3.950  1.3089 -1.4029 -0.6546
  625THF     O111113   3.251   5.289   5.227  0.2064  0.1763  0.2033
  625THF     C211114   3.214   5.421   5.187  0.1700  0.2971  0.5552
  625THF     C311115   3.156   5.231   5.319  0.2134 -0.3237  0.1204
  625THF     H411116   3.248   5.441   5.085 -0.1589 -0.1842  0.3451
  625THF     H511117   3.251   5.501   5.251 -1.2454 -0.3614  2.2895
  625THF     H611118   3.136   5.126   5.295  1.0998 -0.0528 -2.0138
  625THF     H711119   3.198   5.233   5.419  1.9570  1.0137 -0.5899
  625THF     C811120   3.034   5.325   5.300  0.1143 -0.0389 -0.4302
  625THF     C911121   3.059   5.422   5.183 -1.0501  0.4632 -0.8238
  625THF    H1011122   3.040   5.385   5.391  1.1979  0.5826 -0.8786
  625THF    H1111123   2.939   5.273   5.290 -0.9207  1.6453  0.2034
  625THF    H1211124   3.023   5.394   5.084 -0.9467 -0.7490 -0.5274
  625THF    H1311125   3.011   5.517   5.207 -0.9982  0.3019 -0.0611
  626THF     O111126   3.395   0.888   1.837  0.5702 -0.1586  0.6048
  626THF     C211127   3.360   0.755   1.880 -0.3557 -0.1451 -0.3272
  626THF     C311128   3.266   0.939   1.800 -0.1532 -0.3263  0.0857
  626THF     H411129   3.306   0.768   1.973  0.2444 -0.7546  0.1140
  626THF     H511130   3.434   0.679   1.907  0.3168  1.0117  1.2020
  626THF     H611131   3.208   0.970   1.888 -2.0763 -1.0686 -0.8576
  626THF     H711132   3.277   1.017   1.725  1.1106  1.8012  2.3446
  626THF     C811133   3.202   0.821   1.720  0.1674 -0.0663 -0.5694
  626THF     C911134   3.276   0.700   1.769  0.3177  0.2640  0.3060
  626THF    H1011135   3.208   0.840   1.613 -2.1051  2.7311 -0.3221
  626THF    H1111136   3.095   0.824   1.740  0.1584  1.6092 -0.7505
  626THF    H1211137   3.216   0.622   1.816 -0.0943 -0.1856 -0.9475
  626THF    H1311138   3.336   0.662   1.686 -1.0561  0.3305 -0.7520
  627THF     O111139   3.092   3.008   0.282  0.6395 -0.0843 -0.4144
  627THF     C211140   3.039   2.975   0.413  0.2877 -0.2878  0.1202
  627THF     C311141   3.005   2.951   0.185 -0.3833  0.3402 -0.1004
  627THF     H411142   3.011   3.071   0.457 -2.0681 -0.4765 -0.8176
  627THF     H511143   3.111   2.930   0.481  2.6358 -0.4289 -2.2937
  627THF     H611144   2.991   3.009   0.093 -2.2124 -0.5345 -0.4212
  627THF     H711145   3.052   2.855   0.168 -2.0037 -0.3583 -0.9124
  627THF     C811146   2.869   2.935   0.253 -0.0344  0.4313  0.7953
  627THF     C911147   2.911   2.898   0.397  0.5460 -0.0948 -0.1383
  627THF    H1011148   2.818   2.860   0.192  1.0742  1.6806 -1.8031
  627THF    H1111149   2.804   3.022   0.253  0.3488  0.7237 -0.1733
  627THF    H1211150   2.824   2.935   0.452  0.6875  0.1045 -0.0481
  627THF    H1311151   2.923   2.791   0.410 -0.8678 -0.1066  1.3742
  628THF     O111152   0.060   5.175   3.442  0.1569  0.8315  0.4496
  628THF     C211153   0.168   5.125   3.519  0.4955  0.3038  0.4531
  628THF     C311154  -0.058   5.174   3.528  0.2248  0.8114  0.0432
  628THF     H411155   0.269   5.146   3.483  0.4519  0.2731  0.3100
  628THF     H511156   0.154   5.021   3.549 -0.5771  0.9499  2.2920
  628THF     H611157  -0.132   5.241   3.485  1.5074  1.6092 -1.0087
  628THF     H711158  -0.102   5.075   3.542  1.8591  0.0010 -0.2775
  628THF     C811159  -0.001   5.235   3.657  0.0430 -0.9346  0.3260
  628THF     C911160   0.150   5.205   3.646  0.4678  0.1689 -0.2482
  628THF    H1011161  -0.055   5.196   3.743 -1.9889 -0.1913 -0.5634
  628THF    H1111162  -0.010   5.343   3.670  1.9325 -0.5672 -0.9005
  628THF    H1211163   0.195   5.302   3.626  1.8507 -0.3548  0.2172
  628THF    H1311164   0.193   5.160   3.735 -0.8090 -1.4805 -0.4310
  629THF     O111165   2.035   0.286   3.990 -0.8042 -0.2656 -0.2617
  629THF     C211166   2.028   0.180   3.899  0.8233 -0.6135 -0.1713
  629THF     C311167   1.993   0.238   4.118  0.2364 -0.1399 -0.5975
  629THF     H411168   2.129   0.141   3.885  0.6625 -0.7859 -0.9472
  629THF     H511169   1.992   0.227   3.807 -0.5509  0.1939  0.7370
  629THF     H611170   2.070   0.182   4.171  0.6900  0.2622 -0.8243
  629THF     H711171   1.965   0.325   4.177  1.3887  1.1343 -1.8604
  629THF     C811172   1.877   0.147   4.082  0.0617 -0.5069 -0.2343
  629THF     C911173   1.933   0.079   3.967 -0.0918 -0.1841  0.2197
  629THF    H1011174   1.792   0.209   4.053  1.0589  1.2250  0.3274
  629THF    H1111175   1.849   0.087   4.168  1.4140  0.8502  1.2413
  629THF    H1211176   1.980  -0.015   3.996 -1.3178 -0.7588  0.3948
  629THF    H1311177   1.853   0.055   3.897  1.2408 -0.3109 -1.3360
  630THF     O111178   1.152   0.328   3.205  0.1087 -0.0298  0.2790
  630THF     C211179   1.257   0.345   3.306 -1.0529 -0.4055  0.2749
  630THF     C311180   1.135   0.196   3.163 -0.4505  0.1645 -0.4287
  630THF     H411181   1.220   0.404   3.389 -0.9249  1.8102 -1.1788
  630THF     H511182   1.336   0.410   3.269 -0.9662  0.5215  2.0007
  630THF     H611183   1.046   0.157   3.212 -0.7151  0.5119 -0.6380
  630THF     H711184   1.111   0.189   3.057 -2.2317 -2.5083  0.0381
  630THF     C811185   1.271   0.127   3.213  0.2455 -0.4962  0.3107
  630THF     C911186   1.294   0.203   3.337 -0.4362 -0.0482 -0.4944
  630THF    H1011187   1.353   0.144   3.144  1.1259 -1.2437  1.1401
  630THF    H1111188   1.255   0.019   3.222 -1.4645 -0.4268 -1.2320
  630THF    H1211189   1.229   0.167   3.417 -1.5207  2.1930 -0.2954
  630THF    H1311190   1.397   0.203   3.373  0.7168 -0.8606 -3.4909
  631THF     O111191   3.451   3.969   2.263 -0.6287 -0.1627 -0.4301
  631THF     C211192   3.348   4.002   2.174  0.1762 -0.3137  0.1598
  631THF     C311193   3.545   4.074   2.256 -0.4053  0.0736  0.2121
  631THF     H411194   3.286   4.085   2.210  0.7475  1.2750 -2.2660
  631THF     H511195   3.286   3.916   2.152 -1.4963  0.4876  1.4787
  631THF     H611196   3.512   4.170   2.295 -2.5175 -0.4508 -0.1831
  631THF     H711197   3.635   4.038   2.305 -0.5441 -1.2725 -0.4673
  631THF     C811198   3.566   4.085   2.110  0.3054 -0.1438  0.0532
  631THF     C911199   3.430   4.058   2.049  0.2356  0.1400 -0.1584
  631THF    H1011200   3.626   3.997   2.086  0.0498  0.1072 -1.6034
  631THF    H1111201   3.624   4.168   2.072  1.3637 -0.9626 -0.1691
  631THF    H1211202   3.379   4.150   2.024 -0.0349  0.5155  1.6041
  631THF    H1311203   3.424   3.993   1.962 -2.1365  2.4113 -1.8290
  632THF     O111204   1.170   2.116   4.990  0.6742 -0.1334  0.2094
  632THF     C211205   1.295   2.051   5.015 -0.4147  0.2491 -0.7794
  632THF     C311206   1.110   2.133   5.114  0.1107  0.6864 -0.0252
  632THF     H411207   1.373   2.081   4.946 -1.2403  2.1605 -0.9675
  632THF     H511208   1.286   1.943   5.015  1.1307  0.0358  1.9974
  632THF     H611209   1.033   2.210   5.109  1.2187  1.8603  0.2678
  632THF     H711210   1.074   2.039   5.155 -2.3280  0.6603 -2.0270
  632THF     C811211   1.231   2.185   5.197  0.2526 -0.3822  0.1037
  632THF     C911212   1.340   2.097   5.147  0.1193  0.5095 -0.4679
  632THF    H1011213   1.212   2.176   5.304  1.7018 -1.1712  0.3159
  632THF    H1111214   1.244   2.290   5.170 -2.8557  1.7601  5.4396
  632THF    H1211215   1.432   2.156   5.140  0.9504 -0.7322 -0.3049
  632THF    H1311216   1.358   2.012   5.213 -0.6748  1.0010  0.3977
  633THF     O111217   0.611   5.307   5.303  0.1138  0.2430 -0.6145
  633THF     C211218   0.654   5.368   5.180  0.2337  0.3335 -0.2747
  633THF     C311219   0.528   5.409   5.371 -0.7079 -0.1132 -0.0662
  633THF     H411220   0.669   5.286   5.110 -2.7769  0.1892 -0.9176
  633THF     H511221   0.751   5.418   5.186  1.5773 -2.2521  1.0672
  633THF     H611222   0.463   5.361   5.445 -0.0046 -0.5095  0.3031
  633THF     H711223   0.586   5.488   5.419 -1.1065 -1.1615  2.2676
  633THF     C811224   0.443   5.459   5.256 -0.3478  0.1150  1.2235
  633THF     C911225   0.535   5.450   5.129  0.8472 -1.2145 -0.4318
  633THF    H1011226   0.400   5.558   5.265  1.4795  1.0928 -0.2058
  633THF    H1111227   0.358   5.393   5.243 -1.5680  1.5090  1.9012
  633THF    H1211228   0.477   5.408   5.048  0.3552 -2.6397  0.6071
  633THF    H1311229   0.587   5.539   5.094  3.3937 -2.0250  1.0477
  634THF     O111230   1.360   0.954   3.823 -0.1744  0.1076  1.0024
  634THF     C211231   1.338   0.871   3.933  0.8475 -0.3113 -0.6308
  634THF     C311232   1.243   0.978   3.743 -0.0501  0.0423 -0.1507
  634THF     H411233   1.377   0.933   4.014 -1.6419 -3.7505  3.6483
  634THF     H511234   1.384   0.772   3.927 -1.5980 -1.5209 -0.4575
  634THF     H611235   1.245   1.067   3.681 -0.1369  0.7903  0.8878
  634THF     H711236   1.239   0.906   3.661 -0.2293  0.2368 -0.3113
  634THF     C811237   1.127   0.969   3.840  0.0142 -0.6115  0.5592
  634THF     C911238   1.183   0.871   3.946  0.8520 -0.2073 -0.2890
  634THF    H1011239   1.032   0.941   3.793 -0.3553  1.8525 -0.3582
  634THF    H1111240   1.114   1.070   3.880  1.1758  0.6505 -1.9662
  634THF    H1211241   1.142   0.893   4.045  0.5077  3.3036 -1.1010
  634THF    H1311242   1.141   0.775   3.914 -2.0452  0.4906  1.0458
  635THF     O111243   2.359   0.479   2.712  0.3138  0.0838 -0.2544
  635THF     C211244   2.264   0.460   2.608 -0.6933 -0.2334 -0.9631
  635THF     C311245   2.284   0.492   2.829 -0.4272 -0.5322  0.7119
  635THF     H411246   2.209   0.366   2.607 -0.1216 -0.5753 -1.8630
  635THF     H511247   2.320   0.469   2.515  1.6341  1.4301  0.4982
  635THF     H611248   2.235   0.395   2.833 -0.8356 -0.5065 -1.8278
  635THF     H711249   2.348   0.500   2.917  1.2412  0.3359 -0.5180
  635THF     C811250   2.181   0.602   2.790 -0.3828  0.7994  0.2606
  635THF     C911251   2.169   0.580   2.634  0.2704  0.4215 -0.3427
  635THF    H1011252   2.223   0.694   2.830 -1.2809  1.2105  0.2765
  635THF    H1111253   2.091   0.580   2.848  0.5908  0.6813  1.7910
  635THF    H1211254   2.067   0.570   2.597 -0.4511  0.1406  1.6015
  635THF    H1311255   2.210   0.668   2.585 -2.2773  3.0007  1.7861
  636THF     O111256   2.101   2.407   0.891  0.5500 -0.3687  0.1736
  636THF     C211257   2.161   2.533   0.872 -0.4600  0.3062 -0.2462
  636THF     C311258   2.069   2.358   0.761  0.4059  0.3583 -1.0043
  636THF     H411259   2.210   2.571   0.962 -0.0330  1.1015 -0.8026
  636THF     H511260   2.086   2.604   0.838 -0.1678  1.3460  1.1919
  636THF     H611261   2.036   2.255   0.772  0.8267  0.2174 -1.0449
  636THF     H711262   1.976   2.409   0.735 -0.8744 -0.8073  1.0329
  636THF     C811263   2.195   2.387   0.684  0.0911 -0.0211 -0.2815
  636THF     C911264   2.255   2.504   0.755 -0.8101 -0.0411  0.0037
  636THF    H1011265   2.184   2.406   0.577  0.5052  1.8717 -0.0115
  636THF    H1111266   2.267   2.306   0.694  0.4463  0.1735 -1.1769
  636THF    H1211267   2.359   2.484   0.783 -0.4277 -0.1162 -1.3847
  636THF    H1311268   2.261   2.595   0.696  0.3775 -0.5018 -0.6208
  637THF     O111269   4.353   0.686   1.365 -0.0602  0.9243 -0.1104
  637THF     C211270   4.494   0.719   1.367 -0.4769 -0.3818 -0.6259
  637THF     C311271   4.293   0.752   1.475 -0.7330  0.3995 -0.3053
  637THF     H411272   4.522   0.787   1.286  4.2946 -1.8429 -0.5470
  637THF     H511273   4.558   0.631   1.352  1.3762  0.7841  0.1438
  637THF     H611274   4.191   0.784   1.453 -0.6743  0.0799 -1.0802
  637THF     H711275   4.266   0.675   1.546  0.1750  0.3567  0.0079
  637THF     C811276   4.397   0.855   1.531  0.0720 -0.0521 -0.0066
  637THF     C911277   4.526   0.782   1.503  0.1836  0.1388  0.2628
  637THF    H1011278   4.379   0.867   1.637 -2.0823  0.3200 -0.3766
  637THF    H1111279   4.400   0.951   1.479  0.2924  0.1134  0.3092
  637THF    H1211280   4.609   0.853   1.503 -1.9653  2.8086  0.7355
  637THF    H1311281   4.538   0.695   1.568 -1.9784 -1.4496 -1.3272
  638THF     O111282   1.958   3.444   3.601 -0.3518 -0.3804  0.3625
  638THF     C211283   2.066   3.516   3.536 -0.4388 -0.0412  0.6579
  638THF     C311284   1.967   3.472   3.738  0.3216  0.4312 -0.3141
  638THF     H411285   2.013   3.577   3.463 -0.9797  1.1213  1.9580
  638THF     H511286   2.133   3.445   3.487  0.9460  1.9686 -0.4802
  638THF     H611287   1.870   3.462   3.787  0.2027 -0.3243 -0.6876
  638THF     H711288   2.025   3.390   3.779  0.8181  0.9262 -0.0212
  638THF     C811289   2.022   3.609   3.754 -0.1984  0.1915 -0.5405
  638THF     C911290   2.126   3.609   3.645 -0.1585  0.5631  0.5301
  638THF    H1011291   2.055   3.631   3.856  0.8559  1.7817 -1.1925
  638THF    H1111292   1.958   3.692   3.727  0.8466  0.9923 -0.5986
  638THF    H1211293   2.175   3.703   3.619 -0.5543  0.7266  0.3549
  638THF    H1311294   2.216   3.567   3.689 -0.3271  1.9436  2.3284
  639THF     O111295   3.241   2.307   4.639 -0.4827  0.2898  0.5706
  639THF     C211296   3.228   2.326   4.775  0.3548  0.8462 -0.0079
  639THF     C311297   3.143   2.369   4.563 -0.0224 -0.2487  0.3633
  639THF     H411298   3.331   2.348   4.804  1.4760 -1.6217 -1.7253
  639THF     H511299   3.188   2.232   4.813 -2.0010  1.4427 -0.8540
  639THF     H611300   3.191   2.452   4.510 -0.3197 -0.0531  0.4024
  639THF     H711301   3.103   2.301   4.487  1.3572 -1.0746  0.3332
  639THF     C811302   3.047   2.430   4.665 -0.2494 -0.5970 -0.6121
  639THF     C911303   3.130   2.450   4.782 -0.4104 -0.5821  0.0251
  639THF    H1011304   2.977   2.349   4.689  0.5422 -1.6884 -1.7960
  639THF    H1111305   2.987   2.510   4.621 -1.9686 -1.1560  0.6205
  639THF    H1211306   3.187   2.543   4.780 -0.3319 -0.6211  0.2892
  639THF    H1311307   3.070   2.445   4.873 -0.3006 -0.0033  0.1295
  640THF     O111308   0.926   5.299   2.091 -0.7448 -0.0905 -0.3499
  640THF     C211309   0.983   5.196   2.011  0.3441 -0.2575 -0.6890
  640THF     C311310   0.899   5.245   2.218  0.2509 -0.0465  0.2351
  640THF     H411311   1.084   5.181   2.047  0.4655  1.9821  0.0293
  640THF     H511312   0.967   5.237   1.911  2.2342  0.1967 -0.8424
  640THF     H611313   0.983   5.244   2.287 -0.1792  0.5528  0.7842
  640THF     H711314   0.822   5.308   2.264  0.8275 -1.7575  3.9105
  640THF     C811315   0.842   5.103   2.187 -0.1473  1.0286  0.4006
  640THF     C911316   0.890   5.079   2.047 -0.1167 -0.0736 -0.1948
  640THF    H1011317   0.733   5.097   2.185 -0.1526 -0.3844  2.1514
  640THF    H1111318   0.879   5.029   2.258 -2.0272 -1.3370 -0.9305
  640THF    H1211319   0.944   4.985   2.032  2.2612  1.0365  0.8909
  640THF    H1311320   0.806   5.084   1.978  1.1669 -0.7354 -1.8879
  641THF     O111321   3.723   5.265   1.451 -0.0244  0.4852 -0.3304
  641THF     C211322   3.605   5.310   1.398  0.0533 -0.0663  0.3376
  641THF     C311323   3.751   5.133   1.408  0.4186 -0.1272 -0.0566
  641THF     H411324   3.630   5.390   1.329 -1.7442 -0.1792 -0.4807
  641THF     H511325   3.527   5.342   1.467  0.4359 -0.2080  0.8463
  641THF     H611326   3.859   5.123   1.409  0.4444 -0.2694 -1.4740
  641THF     H711327   3.704   5.059   1.473  0.2306 -0.3502 -0.4361
  641THF     C811328   3.687   5.128   1.273  0.2357 -0.2678  0.4549
  641THF     C911329   3.555   5.205   1.298 -0.6217 -0.1236 -0.2901
  641THF    H1011330   3.671   5.027   1.236  0.3269 -0.4648  0.9493
  641THF    H1111331   3.744   5.182   1.198  0.2147 -0.4337  0.3191
  641THF    H1211332   3.510   5.243   1.206 -1.2566  1.5048  0.6553
  641THF    H1311333   3.485   5.140   1.351 -0.7527  0.9285  0.8575
  642THF     O111334   1.892   2.969   3.415  0.1378 -0.5949 -0.4227
  642THF     C211335   2.032   2.932   3.400  0.5620 -0.0606  0.6183
  642THF     C311336   1.872   3.069   3.318  0.4905 -0.0538  0.0757
  642THF     H411337   2.051   2.834   3.355  1.0113  0.1586  0.3244
  642THF     H511338   2.087   2.917   3.493  2.8643  2.7761 -0.1492
  642THF     H611339   1.858   3.019   3.222 -1.1625 -0.2359  0.3827
  642THF     H711340   1.777   3.113   3.348  0.6658  2.2446 -2.3601
  642THF     C811341   1.994   3.156   3.310  0.4334 -0.4283 -0.1253
  642THF     C911342   2.102   3.046   3.326  0.2353  0.4114  0.2628
  642THF    H1011343   1.987   3.236   3.384  1.1021 -0.3495 -0.1398
  642THF    H1111344   2.009   3.194   3.209  1.4768 -3.1321 -1.0879
  642THF    H1211345   2.150   3.014   3.233  0.6099  1.6137  0.0236
  642THF    H1311346   2.175   3.097   3.388  1.6249  0.8706 -1.6723
  643THF     O111347   2.300   2.977   0.920 -0.2127  0.2451  0.5547
  643THF     C211348   2.197   3.002   1.003  1.4370  0.2846  0.1382
  643THF     C311349   2.263   2.884   0.818 -0.6621  0.6068  0.5054
  643THF     H411350   2.185   3.109   1.021 -0.4941  0.1343  0.0095
  643THF     H511351   2.205   2.950   1.099 -0.5705 -0.2383  0.0685
  643THF     H611352   2.331   2.896   0.735 -2.0138  0.5231 -0.6528
  643THF     H711353   2.269   2.788   0.870 -0.3324 -0.2497 -1.0579
  643THF     C811354   2.114   2.910   0.791 -0.4599 -0.3564  0.6249
  643THF     C911355   2.067   2.946   0.933 -0.1615  0.2460 -0.1404
  643THF    H1011356   2.053   2.831   0.745 -3.2416  1.9371  0.0718
  643THF    H1111357   2.097   2.989   0.717 -0.5400 -2.3958 -1.6892
  643THF    H1211358   1.978   3.008   0.926  0.4275  1.2143  0.7219
  643THF    H1311359   2.032   2.854   0.980 -0.8747  2.2237  3.5035
  644THF     O111360   2.917   0.336   3.874 -0.1462  0.5510 -0.0878
  644THF     C211361   2.980   0.213   3.859  0.3980  0.3468  0.3727
  644THF     C311362   2.910   0.404   3.754 -0.0562 -0.2561  0.2809
  644THF     H411363   2.898   0.142   3.844  0.4470  0.2042  0.7723
  644THF     H511364   3.011   0.181   3.959 -0.8155  0.0055  0.6667
  644THF     H611365   2.820   0.378   3.698 -0.3981  0.4760  0.4761
  644THF     H711366   2.901   0.511   3.770 -3.2876 -0.6816  2.0757
  644THF     C811367   3.033   0.370   3.680 -0.1940  0.1055 -0.6320
  644THF     C911368   3.083   0.248   3.756 -0.3976  0.3593  0.4455
  644THF    H1011369   3.108   0.449   3.692  1.1322 -1.5209  3.1623
  644THF    H1111370   3.015   0.358   3.573  0.3248  0.2004 -0.7382
  644THF    H1211371   3.096   0.155   3.700 -0.6479 -0.2156  1.3193
  644THF    H1311372   3.177   0.262   3.808 -0.4926 -2.0346  1.3940
  645THF     O111373   5.337   2.340   4.585  0.2335  0.3998  0.1054
  645THF     C211374   5.211   2.347   4.515 -0.4233 -0.2489  0.4634
  645THF     C311375   5.438   2.377   4.492 -0.0413 -0.0655  0.0470
  645THF     H411376   5.138   2.406   4.570 -0.1774 -0.3615  0.9143
  645THF     H511377   5.184   2.241   4.509  0.7387 -0.4955 -1.3051
  645THF     H611378   5.521   2.428   4.541 -0.1740 -1.2419  1.5549
  645THF     H711379   5.476   2.298   4.427  0.2646  0.6300 -0.6334
  645THF     C811380   5.376   2.478   4.398  0.2668  0.4231 -0.6518
  645THF     C911381   5.238   2.416   4.381 -0.2135 -0.1631 -0.1377
  645THF    H1011382   5.432   2.494   4.305  0.5586  0.8805 -0.4021
  645THF    H1111383   5.373   2.577   4.443  1.8942  0.3961 -0.4237
  645THF    H1211384   5.157   2.485   4.357  1.5335  2.2099  0.4056
  645THF    H1311385   5.241   2.340   4.304 -0.7004  1.4714 -1.8328
  646THF     O111386   2.350   2.965   4.803 -0.2926 -0.3145 -0.8060
  646THF     C211387   2.344   2.829   4.773  0.6882 -1.1201 -0.3680
  646THF     C311388   2.387   2.973   4.936 -0.1876  0.5047 -0.2058
  646THF     H411389   2.382   2.834   4.671  2.4858  2.8423  0.3179
  646THF     H511390   2.240   2.795   4.767 -0.4772  2.1257 -0.8559
  646THF     H611391   2.431   3.069   4.962 -0.6429  0.2982  1.4448
  646THF     H711392   2.299   2.958   5.000 -0.1506 -0.0803 -0.2820
  646THF     C811393   2.479   2.849   4.957 -0.4033  0.0614  0.2161
  646THF     C911394   2.428   2.740   4.865 -0.2429 -0.2837  0.3655
  646THF    H1011395   2.483   2.822   5.063 -2.7925  0.8857  0.5825
  646THF    H1111396   2.582   2.863   4.925 -0.8660 -0.6698 -1.7362
  646THF    H1211397   2.509   2.685   4.818  0.3029 -0.6191  1.6535
  646THF    H1311398   2.368   2.670   4.924  3.0436 -1.1025  3.0437
  647THF     O111399   3.167   0.422   4.285 -0.0801 -0.1226  0.8087
  647THF     C211400   3.052   0.450   4.363  0.0094 -0.0886  0.2658
  647THF     C311401   3.153   0.288   4.242 -0.6803 -0.1165  0.4635
  647THF     H411402   2.967   0.452   4.295 -1.0077  0.1995  1.4946
  647THF     H511403   3.055   0.540   4.425 -0.1930 -0.9133  1.5103
  647THF     H611404   3.095   0.278   4.150  0.8054  1.3429 -0.6857
  647THF     H711405   3.249   0.250   4.205 -0.5600 -0.5506  1.2081
  647THF     C811406   3.107   0.212   4.364 -0.5066 -1.0046  0.0027
  647THF     C911407   3.035   0.320   4.443  0.6641 -0.2387 -0.3865
  647THF    H1011408   3.193   0.187   4.425 -2.1232  0.2328  3.0157
  647THF    H1111409   3.047   0.122   4.349 -0.3381 -1.2542  0.8182
  647THF    H1211410   2.930   0.292   4.455  0.3327  0.7540 -0.8497
  647THF    H1311411   3.068   0.331   4.546 -0.7538 -1.6135  0.2530
  648THF     O111412   0.923   1.127   3.473 -0.2902 -0.4782 -0.0489
  648THF     C211413   0.919   1.227   3.579 -0.2446 -0.1556 -0.2795
  648THF     C311414   1.056   1.113   3.440  0.1612  0.7512  0.0400
  648THF     H411415   0.953   1.186   3.674 -2.0790 -0.7651  0.1422
  648THF     H511416   0.819   1.263   3.601 -0.2943 -0.6062  0.2430
  648THF     H611417   1.105   1.032   3.495  0.0624  0.0814 -0.8311
  648THF     H711418   1.055   1.089   3.333 -1.1438  1.4008 -0.1065
  648THF     C811419   1.118   1.253   3.461  0.3969  0.0231  0.2942
  648THF     C911420   1.015   1.333   3.545 -0.4680  0.4152 -0.0806
  648THF    H1011421   1.129   1.298   3.363  2.0351 -2.6890 -0.8809
  648THF    H1111422   1.218   1.251   3.506  0.5726 -0.0243 -0.0975
  648THF    H1211423   1.058   1.377   3.635 -0.3843 -1.1089  0.6672
  648THF    H1311424   0.962   1.401   3.479 -1.8960 -0.5116  0.0653
  649THF     O111425   5.213   1.823   4.043 -0.1010  0.2770 -0.8006
  649THF     C211426   5.255   1.922   3.954  0.1626  0.8663  0.0075
  649THF     C311427   5.321   1.741   4.076  0.5640 -0.3524  0.3768
  649THF     H411428   5.179   1.999   3.967 -0.4382 -0.1660  4.1806
  649THF     H511429   5.248   1.874   3.857 -0.0773  0.1547  0.3638
  649THF     H611430   5.291   1.679   4.160  0.0631 -0.3154  0.2273
  649THF     H711431   5.335   1.684   3.984 -0.5381  0.6920 -0.4609
  649THF     C811432   5.427   1.847   4.111  0.0533 -0.3971 -0.1073
  649THF     C911433   5.396   1.950   4.004 -0.6051  0.0737 -0.5001
  649THF    H1011434   5.525   1.802   4.123  0.2398 -0.3654 -1.4549
  649THF    H1111435   5.406   1.893   4.208  0.9174  2.4845 -1.2056
  649THF    H1211436   5.415   2.050   4.041  0.0567  0.1535 -1.0326
  649THF    H1311437   5.463   1.943   3.918 -1.4982 -1.6617 -1.1097
  650THF     O111438   1.028   3.158   1.788 -0.0926 -0.1459 -0.0218
  650THF     C211439   1.009   3.255   1.685  0.9079  0.3981  0.2518
  650THF     C311440   1.165   3.130   1.798 -0.0466  0.4213  0.0915
  650THF     H411441   1.041   3.352   1.723  2.8630 -0.1555  0.1165
  650THF     H511442   0.903   3.266   1.663  0.8424  0.7233  0.7197
  650THF     H611443   1.224   3.199   1.858 -0.0468 -0.1947  0.8139
  650THF     H711444   1.172   3.038   1.856  0.2687  0.4132  0.0407
  650THF     C811445   1.212   3.114   1.652  0.4236  0.4899 -0.3814
  650THF     C911446   1.099   3.193   1.579  0.0498  0.1401 -0.3233
  650THF    H1011447   1.206   3.009   1.625 -2.1084 -0.1964  2.3010
  650THF    H1111448   1.313   3.153   1.638 -0.6752  3.2895 -1.1677
  650THF    H1211449   1.148   3.256   1.505  0.2205  0.5296  0.1190
  650THF    H1311450   1.043   3.110   1.536  0.9244 -0.8939  0.4936
  651THF     O111451   4.543   4.939   2.125  0.6835  0.0623  0.6717
  651THF     C211452   4.596   4.921   2.251  0.2267 -0.7708  0.9174
  651THF     C311453   4.428   5.022   2.130  0.0777  0.2436  0.0372
  651THF     H411454   4.649   5.013   2.276 -0.0266 -0.2192 -0.4865
  651THF     H511455   4.662   4.834   2.257 -0.0487 -1.1229 -0.6832
  651THF     H611456   4.466   5.124   2.139  0.4891  0.0502  0.5537
  651THF     H711457   4.358   5.020   2.047 -0.3135  1.2557  0.3349
  651THF     C811458   4.361   4.965   2.262  0.2756  0.0159 -0.2328
  651THF     C911459   4.473   4.895   2.339  0.2091 -0.4608  0.5612
  651THF    H1011460   4.286   4.890   2.237 -0.0455 -0.4757  1.9746
  651THF    H1111461   4.319   5.048   2.319 -0.4088 -0.7353  0.3969
  651THF    H1211462   4.478   4.933   2.442 -2.3193  1.0055  0.2324
  651THF    H1311463   4.457   4.787   2.339 -0.6416 -0.3559  1.8796
  652THF     O111464   1.789   4.624   0.967  0.0114 -0.3270  0.8415
  652THF     C211465   1.648   4.631   0.969 -0.3357 -0.2518 -0.2464
  652THF     C311466   1.834   4.721   0.873  0.3097 -0.6651  0.0794
  652THF     H411467   1.606   4.585   1.059 -0.2224  0.0796 -0.0209
  652THF     H511468   1.611   4.571   0.885 -0.0905  0.3136 -0.7608
  652THF     H611469   1.917   4.771   0.923 -1.1460  0.2050  1.7445
  652THF     H711470   1.868   4.673   0.782 -2.8639 -0.1993 -1.5070
  652THF     C811471   1.713   4.820   0.847 -0.2467  0.4922  0.1800
  652THF     C911472   1.609   4.778   0.956 -0.2719 -0.4772 -0.3291
  652THF    H1011473   1.664   4.813   0.750 -1.4794  0.0120  0.8044
  652THF    H1111474   1.763   4.917   0.854  0.0475  0.2833  1.1372
  652THF    H1211475   1.627   4.822   1.054 -4.1727  0.3661  0.1746
  652THF    H1311476   1.504   4.790   0.928 -0.5800 -0.8461  0.6155
  653THF     O111477   2.231   3.535   4.264  0.4702 -0.2394  0.2567
  653THF     C211478   2.209   3.396   4.284  0.6468  0.6333 -0.7406
  653THF     C311479   2.125   3.584   4.185  0.0485 -0.1423 -0.4696
  653THF     H411480   2.124   3.374   4.349  0.3677  0.3826 -1.1881
  653THF     H511481   2.302   3.342   4.307  0.8756  1.5564  0.6228
  653THF     H611482   2.045   3.609   4.256  0.4909 -0.0695  0.0087
  653THF     H711483   2.142   3.674   4.127  0.6666 -0.5961 -1.0126
  653THF     C811484   2.093   3.468   4.092  0.3670  0.0104  0.4841
  653THF     C911485   2.155   3.344   4.151  0.1277  0.6353 -0.3668
  653THF    H1011486   2.140   3.469   3.993 -0.8224 -0.3148 -0.1063
  653THF    H1111487   1.987   3.445   4.100  0.8418 -1.8099  2.5136
  653THF    H1211488   2.077   3.270   4.166 -2.8140  3.3262 -1.3337
  653THF    H1311489   2.238   3.309   4.088  2.1791  1.2960  1.8268
  654THF     O111490   1.892   1.456   4.767  0.0029  0.3655 -0.9311
  654THF     C211491   1.822   1.487   4.887  0.0700 -0.0653 -0.4207
  654THF     C311492   1.987   1.562   4.756 -0.3764 -0.3310 -0.2761
  654THF     H411493   1.762   1.400   4.913  1.1575 -1.4265 -2.2182
  654THF     H511494   1.752   1.569   4.872  0.8504  0.2573 -2.7956
  654THF     H611495   2.070   1.528   4.693 -1.2291  0.2125 -1.7539
  654THF     H711496   1.932   1.649   4.720 -3.3418 -1.6378  0.7784
  654THF     C811497   2.036   1.594   4.901 -0.6712 -0.4130 -0.5257
  654THF     C911498   1.928   1.514   4.987 -0.5423  0.0427  0.2265
  654THF    H1011499   2.022   1.701   4.910 -3.0014 -0.6312 -0.8796
  654THF    H1111500   2.139   1.563   4.918 -1.2641 -1.5095  1.3597
  654THF    H1211501   1.983   1.429   5.028  1.6540  0.9662 -0.6575
  654THF    H1311502   1.885   1.577   5.066 -0.6880 -0.3676  0.4801
  655THF     O111503   0.663   4.418   0.435 -0.0032  0.0381 -0.0012
  655THF     C211504   0.592   4.309   0.383 -0.0129  0.3787 -0.4288
  655THF     C311505   0.796   4.375   0.459  0.0836  0.5980 -0.1076
  655THF     H411506   0.501   4.341   0.332 -0.1157  1.5784  0.4424
  655THF     H511507   0.568   4.253   0.474 -0.7082  0.9846 -0.2304
  655THF     H611508   0.858   4.464   0.464  2.2601 -0.9080  0.8917
  655THF     H711509   0.813   4.328   0.555  1.4792 -0.4476 -0.8363
  655THF     C811510   0.824   4.273   0.350  0.0115  0.2089 -0.5541
  655THF     C911511   0.694   4.239   0.290 -0.3945 -0.1018 -0.1962
  655THF    H1011512   0.875   4.190   0.399 -2.3756 -1.6396 -1.0177
  655THF    H1111513   0.885   4.322   0.274  0.4674 -0.2178 -0.4670
  655THF    H1211514   0.673   4.277   0.190  0.2102  0.2419 -0.1978
  655THF    H1311515   0.683   4.130   0.292  2.3277 -0.4519  2.0056
  656THF     O111516   1.760   1.092   5.476  0.3698  0.1566  0.0375
  656THF     C211517   1.827   1.103   5.595 -0.4536  0.4830 -0.4838
  656THF     C311518   1.790   1.202   5.393  0.4179 -0.4627 -0.5625
  656THF     H411519   1.849   0.997   5.608 -0.1512  0.7522  1.5640
  656THF     H511520   1.753   1.127   5.672  0.6483 -1.4220  1.2649
  656THF     H611521   1.836   1.170   5.299  2.4671  1.0751 -0.1642
  656THF     H711522   1.700   1.257   5.367  1.1263  1.5027  0.8449
  656THF     C811523   1.890   1.294   5.464  0.2192  0.1689 -0.3662
  656THF     C911524   1.940   1.212   5.575 -0.3921 -0.2830 -0.6823
  656THF    H1011525   1.833   1.376   5.508  1.5947 -0.0072  1.9615
  656THF    H1111526   1.970   1.337   5.403  2.0330 -2.5078 -0.0476
  656THF    H1211527   2.038   1.166   5.566 -0.9831 -1.3671 -1.9146
  656THF    H1311528   1.955   1.272   5.665  0.5504 -1.2168 -0.1915
  657THF     O111529   4.796   3.498   5.217 -0.3615 -0.0797 -0.3232
  657THF     C211530   4.935   3.525   5.236 -0.3143 -0.1273  0.1825
  657THF     C311531   4.775   3.511   5.078  0.1210 -0.3812  0.3962
  657THF     H411532   5.003   3.443   5.212  2.5954  2.5577 -1.3753
  657THF     H511533   4.954   3.547   5.341 -1.5556 -0.0628  0.4123
  657THF     H611534   4.793   3.422   5.017  1.7594  1.0208 -1.2468
  657THF     H711535   4.670   3.535   5.059 -0.0628 -1.9031 -0.7990
  657THF     C811536   4.854   3.630   5.038  0.0400 -0.5768 -0.5749
  657THF     C911537   4.954   3.645   5.150 -0.8432  0.1995 -0.1822
  657THF    H1011538   4.789   3.716   5.020  2.3029  1.3086 -0.3414
  657THF    H1111539   4.904   3.610   4.943 -0.9263 -1.9201 -0.8168
  657THF    H1211540   5.054   3.652   5.109 -0.7164  2.3078  0.3605
  657THF    H1311541   4.952   3.735   5.213  4.0314  0.0868  0.4940
  658THF     O111542   2.466   5.493   2.842  0.9741  0.2259  0.1421
  658THF     C211543   2.414   5.603   2.768  0.2577  0.4720 -0.3039
  658THF     C311544   2.607   5.518   2.877  0.4262 -0.1418  0.4265
  658THF     H411545   2.313   5.620   2.804  0.6169 -0.6984  1.3375
  658THF     H511546   2.418   5.585   2.660  0.0362  3.1865 -0.8359
  658THF     H611547   2.645   5.466   2.965 -1.8187 -3.1078 -0.2099
  658THF     H711548   2.672   5.481   2.797  0.8858  2.1646 -0.3457
  658THF     C811549   2.602   5.669   2.898 -0.5776 -0.2392 -0.3254
  658THF     C911550   2.504   5.721   2.805  0.1901 -0.0434  0.1363
  658THF    H1011551   2.700   5.712   2.877 -0.6674  0.1436  0.0270
  658THF    H1111552   2.577   5.683   3.003  1.8333  1.3743  0.1156
  658THF    H1211553   2.448   5.805   2.847  0.1090 -0.5117  0.9890
  658THF    H1311554   2.549   5.753   2.711  1.2071 -1.1607  0.2264
  659THF     O111555   4.651   5.367   0.219 -0.1282  0.0210  0.2652
  659THF     C211556   4.613   5.377   0.082 -0.0660 -0.8829 -0.0782
  659THF     C311557   4.665   5.494   0.290  0.5771  0.6379 -0.5848
  659THF     H411558   4.510   5.354   0.053 -0.3364 -1.0839  1.0171
  659THF     H511559   4.681   5.318   0.020  2.1571  0.2279  1.1893
  659THF     H611560   4.566   5.534   0.314  0.3032 -0.8938  1.0757
  659THF     H711561   4.727   5.482   0.379  1.2757  1.9551 -0.8739
  659THF     C811562   4.732   5.561   0.184  0.7742  0.3572  0.3156
  659THF     C911563   4.643   5.528   0.062 -0.2412 -0.6203 -0.7814
  659THF    H1011564   4.824   5.512   0.151 -0.9733 -2.6754 -0.3495
  659THF    H1111565   4.751   5.667   0.204  3.1542  0.2421 -0.9344
  659THF    H1211566   4.560   5.599   0.056 -0.3111 -0.2625  2.6244
  659THF    H1311567   4.702   5.543  -0.029  1.6376  0.8052  0.5999
  660THF     O111568   2.410   4.589   4.895 -0.0744  0.4671 -0.2919
  660THF     C211569   2.534   4.631   4.948 -0.8779  0.1494 -0.3759
  660THF     C311570   2.367   4.675   4.788  0.4222 -0.4809  0.6410
  660THF     H411571   2.577   4.549   5.005 -0.7318 -1.5874 -2.8489
  660THF     H511572   2.517   4.719   5.010  1.5945  2.0466 -2.1808
  660THF     H611573   2.310   4.615   4.717  0.6414 -0.6228  0.5862
  660THF     H711574   2.307   4.760   4.820  0.6885 -0.3696  0.8454
  660THF     C811575   2.492   4.737   4.736  0.4677  0.2158 -0.2132
  660THF     C911576   2.606   4.672   4.820  0.5552 -0.4192 -0.5814
  660THF    H1011577   2.490   4.844   4.757  1.8297  0.8894 -3.0074
  660THF    H1111578   2.495   4.723   4.628  0.0165  2.0301 -0.4954
  660THF    H1211579   2.650   4.583   4.775 -0.2772 -1.0165 -0.2228
  660THF    H1311580   2.691   4.738   4.839  2.0677 -2.3465 -0.3167
  661THF     O111581   1.065   3.204   1.028 -0.4549  0.4548 -0.4334
  661THF     C211582   0.989   3.282   0.942  0.2358 -0.5215  0.2837
  661THF     C311583   1.162   3.128   0.951  0.0556  0.2656  0.0146
  661THF     H411584   1.024   3.385   0.933 -0.1834 -0.2917  1.1985
  661THF     H511585   0.888   3.281   0.984  0.1400  2.0935  0.2654
  661THF     H611586   1.259   3.161   0.987  0.3885  1.5439 -1.9283
  661THF     H711587   1.154   3.023   0.981  2.2902 -0.2333 -0.9504
  661THF     C811588   1.134   3.159   0.800 -0.3198  0.1023  0.1127
  661THF     C911589   0.995   3.220   0.808  0.3181  0.1874 -0.3073
  661THF    H1011590   1.142   3.074   0.732 -2.1933  1.6508 -2.1866
  661THF    H1111591   1.203   3.237   0.767 -2.8618  2.9436  1.0402
  661THF    H1211592   0.977   3.293   0.729 -2.7940  0.8593  0.8784
  661THF    H1311593   0.922   3.140   0.791 -0.2111  0.7220 -0.5728
  662THF     O111594   3.304   5.046   1.661  0.4083 -0.0947 -0.3211
  662THF     C211595   3.406   4.964   1.604 -0.3282 -0.1631  0.7550
  662THF     C311596   3.205   4.953   1.698 -0.0137  0.4295 -0.3307
  662THF     H411597   3.495   5.026   1.613 -0.8665  0.7768 -0.1765
  662THF     H511598   3.374   4.950   1.501 -1.1756 -2.1750  1.2427
  662THF     H611599   3.135   5.002   1.766  0.0376  0.5589 -0.3718
  662THF     H711600   3.150   4.916   1.611 -0.0131  1.2488 -0.6885
  662THF     C811601   3.281   4.837   1.767  0.2745 -0.4921 -0.0378
  662THF     C911602   3.405   4.832   1.683  0.1079  1.1442 -0.6221
  662THF    H1011603   3.223   4.745   1.765 -1.5855  0.6169 -2.8611
  662THF    H1111604   3.306   4.860   1.871 -1.1539 -1.1932  0.4963
  662THF    H1211605   3.491   4.814   1.747 -0.5429  0.4016  0.0674
  662THF    H1311606   3.388   4.751   1.611 -0.1183  0.4224  0.2238
  663THF     O111607   5.179   4.161   3.253  0.0620  0.0570  0.1792
  663THF     C211608   5.210   4.299   3.282 -0.2874  0.6759 -0.0595
  663THF     C311609   5.052   4.128   3.307  0.1206  0.0001  0.1701
  663THF     H411610   5.161   4.368   3.214 -0.3100  0.8409  0.1246
  663THF     H511611   5.317   4.311   3.266 -0.5841 -0.2991 -3.7198
  663THF     H611612   4.972   4.140   3.234 -1.4820  1.4986  2.0732
  663THF     H711613   5.053   4.021   3.327  2.4609 -0.2690 -1.0021
  663THF     C811614   5.028   4.235   3.415  0.3146  0.2350 -0.1361
  663THF     C911615   5.161   4.311   3.429  0.1075  0.6218  0.0882
  663THF    H1011616   5.006   4.187   3.511  0.2957 -1.2095 -0.8396
  663THF    H1111617   4.940   4.297   3.395 -0.1885 -0.6304 -0.6711
  663THF    H1211618   5.150   4.416   3.456 -0.0604  0.7170 -0.3338
  663THF    H1311619   5.224   4.262   3.503 -0.2645  0.4020  0.2573
  664THF     O111620   1.407   2.173   0.681  0.3207 -0.0742  0.4211
  664THF     C211621   1.413   2.035   0.671  0.6205  0.3578  0.0819
  664THF     C311622   1.274   2.217   0.666 -0.1435  0.8325  0.4039
  664THF     H411623   1.380   1.981   0.760  0.0969 -0.0813 -0.3712
  664THF     H511624   1.517   2.003   0.656  0.1059 -0.6406 -1.6736
  664THF     H611625   1.239   2.231   0.768 -1.0016  0.3602  0.1876
  664THF     H711626   1.278   2.306   0.604  0.4715  0.0850 -0.6581
  664THF     C811627   1.209   2.100   0.582 -0.0770 -0.0332 -0.2703
  664THF     C911628   1.318   2.006   0.556 -0.5399  0.4741 -0.0960
  664THF    H1011629   1.181   2.134   0.483 -0.0959  2.9164  0.6707
  664THF    H1111630   1.128   2.050   0.637  1.2958 -2.0210  0.0756
  664THF    H1211631   1.291   1.903   0.533 -1.7036 -0.0791  3.2221
  664THF    H1311632   1.379   2.047   0.475  0.6469 -1.4244 -0.2413
  665THF     O111633   3.479   0.254   0.644 -0.0949 -0.5435 -0.3441
  665THF     C211634   3.613   0.252   0.608  0.4392 -0.0743 -0.4206
  665THF     C311635   3.453   0.267   0.786 -0.0420 -0.4462  0.7831
  665THF     H411636   3.648   0.350   0.574  0.9162  1.2736  3.4687
  665THF     H511637   3.640   0.173   0.538  1.2838 -0.7388  0.6189
  665THF     H611638   3.398   0.361   0.792  1.8306  0.6678  1.2181
  665THF     H711639   3.405   0.177   0.825 -2.2726 -0.7163 -2.1735
  665THF     C811640   3.591   0.287   0.848 -0.1569 -0.1737  0.4759
  665THF     C911641   3.680   0.220   0.741 -0.2823  0.1821  0.2684
  665THF    H1011642   3.594   0.263   0.955 -1.9942 -1.3332  0.3146
  665THF    H1111643   3.629   0.389   0.842  2.1324 -1.0308 -1.1738
  665THF    H1211644   3.780   0.263   0.730  0.0114 -0.4762  0.3192
  665THF    H1311645   3.685   0.114   0.765  0.7836  0.7104  2.6968
  666THF     O111646   0.254   0.458   0.098 -0.5320  0.6295  0.3610
  666THF     C211647   0.333   0.494  -0.015  0.8552  0.1017 -0.6634
  666THF     C311648   0.116   0.495   0.058 -0.0916 -0.0339  0.3240
  666THF     H411649   0.430   0.446   0.000  0.5268 -0.4837 -0.3898
  666THF     H511650   0.341   0.601  -0.033 -1.2772  0.5430  0.7045
  666THF     H611651   0.036   0.433   0.097 -0.5869  0.8124  0.6800
  666THF     H711652   0.087   0.597   0.085 -0.6701  0.0892 -0.7342
  666THF     C811653   0.112   0.477  -0.097 -0.1950 -0.0810 -1.1535
  666THF     C911654   0.255   0.436  -0.127 -0.2095 -0.2587 -0.4758
  666THF    H1011655   0.097   0.574  -0.144 -2.8050  0.2428  0.1569
  666THF    H1111656   0.033   0.415  -0.138 -1.4583  1.6960 -1.5612
  666THF    H1211657   0.265   0.328  -0.120 -0.4105 -0.1710  1.6375
  666THF    H1311658   0.279   0.474  -0.227 -0.9913  1.6993  0.0262
  667THF     O111659   0.725   3.616   4.462 -0.0383  0.4568  0.5425
  667THF     C211660   0.798   3.671   4.355 -0.1564 -0.1610 -0.0158
  667THF     C311661   0.589   3.587   4.428  0.3615  0.1063 -0.4358
  667THF     H411662   0.879   3.605   4.326  0.8739  0.3583  1.5323
  667THF     H511663   0.840   3.766   4.387 -0.7510 -0.3389  1.4056
  667THF     H611664   0.584   3.482   4.400 -1.0662 -0.4952  1.8038
  667THF     H711665   0.509   3.599   4.502 -0.6511 -2.7464 -0.9369
  667THF     C811666   0.556   3.683   4.312  0.1183 -0.1461 -0.4904
  667THF     C911667   0.696   3.694   4.248  0.5092 -0.3627 -0.0976
  667THF    H1011668   0.524   3.776   4.359 -1.5435 -0.5524 -0.7528
  667THF    H1111669   0.469   3.656   4.253 -1.3482  1.7221  0.6935
  667THF    H1211670   0.718   3.624   4.168 -0.6193 -0.1749 -0.6003
  667THF    H1311671   0.705   3.798   4.215 -0.9832 -0.1918 -0.0424
  668THF     O111672   0.992   4.412   1.573 -0.0166  0.1589  0.2393
  668THF     C211673   0.963   4.462   1.698 -0.2375 -0.0565  0.1722
  668THF     C311674   1.002   4.523   1.492 -0.1250 -0.4664 -0.3532
  668THF     H411675   1.049   4.484   1.762 -0.3190  1.3230 -0.1619
  668THF     H511676   0.908   4.384   1.751 -1.3326 -0.5607 -1.6180
  668THF     H611677   1.107   4.547   1.473  0.8081 -1.8677  2.4664
  668THF     H711678   0.950   4.504   1.398  0.2377  0.9063 -0.8624
  668THF     C811679   0.937   4.642   1.556 -0.5865 -0.2299  1.1542
  668THF     C911680   0.873   4.589   1.681 -0.1646 -0.4126 -0.4412
  668THF    H1011681   0.856   4.691   1.501  0.0732 -1.8241 -1.3620
  668THF    H1111682   1.010   4.721   1.571 -2.0271  1.3118  0.4377
  668THF    H1211683   0.885   4.672   1.751 -0.4344 -0.6196 -0.1438
  668THF    H1311684   0.770   4.565   1.655  0.3213 -0.9844 -1.9237
  669THF     O111685   2.142   4.326   2.583 -0.3599  0.9170 -0.6517
  669THF     C211686   2.109   4.210   2.502 -0.4430 -0.3601  0.2653
  669THF     C311687   2.119   4.439   2.500 -0.5542  0.4716  0.2451
  669THF     H411688   2.076   4.121   2.556 -2.5996  0.3420  0.1791
  669THF     H511689   2.195   4.190   2.439 -0.3759  2.8979 -0.8544
  669THF     H611690   2.104   4.534   2.552 -1.6984  1.1061 -1.1721
  669THF     H711691   2.206   4.462   2.439 -0.1999 -0.6492  0.3150
  669THF     C811692   1.981   4.408   2.434 -0.0270  0.0894 -0.5100
  669THF     C911693   1.990   4.261   2.425  0.2461 -0.0820  0.6505
  669THF    H1011694   1.961   4.461   2.341  0.2052  2.3029  0.6358
  669THF    H1111695   1.905   4.426   2.509  0.5250 -0.3208  0.1650
  669THF    H1211696   1.901   4.206   2.459  2.8090 -2.2764  4.6219
  669THF    H1311697   1.999   4.229   2.322  0.6422  0.1523  0.6109
  670THF     O111698   1.859   3.716   0.169 -0.0789  0.1166  0.0357
  670THF     C211699   1.752   3.624   0.199  0.3768  0.6389  0.0285
  670THF     C311700   1.982   3.643   0.163 -0.6852  0.8969  0.2409
  670THF     H411701   1.680   3.614   0.117 -1.4423  0.9209  1.5364
  670THF     H511702   1.695   3.673   0.277  1.2599  2.1483 -0.2369
  670THF     H611703   2.003   3.595   0.068  0.2558  2.0125 -0.1346
  670THF     H711704   2.072   3.705   0.161  1.4904 -2.0144  0.7268
  670THF     C811705   1.960   3.536   0.264  0.2507  0.2444 -0.7039
  670THF     C911706   1.816   3.496   0.252 -0.3008  0.2480 -0.0149
  670THF    H1011707   1.966   3.577   0.365  1.2935  3.2772 -1.8996
  670THF    H1111708   2.026   3.449   0.265 -1.2588 -0.9522  0.5805
  670THF    H1211709   1.798   3.410   0.187 -2.1247  0.6170 -0.0561
  670THF    H1311710   1.774   3.467   0.348 -0.7347  2.1039  0.4000
  671THF     O111711   3.723   5.258   4.506 -0.1488 -0.3595 -0.4337
  671THF     C211712   3.801   5.259   4.389  0.0840  0.1287 -0.6275
  671THF     C311713   3.712   5.397   4.544  0.3242 -0.2551 -0.1640
  671THF     H411714   3.747   5.290   4.299 -1.5873 -2.5900 -0.6688
  671THF     H511715   3.834   5.157   4.372  2.3831  0.8500 -0.7979
  671THF     H611716   3.655   5.454   4.471  1.4766  3.0502  1.2936
  671THF     H711717   3.666   5.413   4.642  0.5476  0.0929 -0.1154
  671THF     C811718   3.859   5.434   4.540  0.0616  0.8054 -0.8379
  671THF     C911719   3.921   5.348   4.432 -0.2839 -0.6776  0.0848
  671THF    H1011720   3.908   5.419   4.636 -0.4296  0.2346 -0.6747
  671THF    H1111721   3.867   5.538   4.507  0.6613  0.7305 -0.9444
  671THF    H1211722   3.976   5.407   4.358 -1.5286 -0.8020 -0.9728
  671THF    H1311723   3.992   5.288   4.488 -1.7332 -0.8143  1.8690
  672THF     O111724   1.778   0.310   5.091 -0.5701  0.5759 -0.6319
  672THF     C211725   1.879   0.351   5.000 -0.5232  0.0855  0.5197
  672THF     C311726   1.769   0.418   5.187 -0.3847 -0.2319 -0.0925
  672THF     H411727   1.836   0.419   4.926  1.2679 -0.5579 -1.1840
  672THF     H511728   1.930   0.279   4.937  1.5132 -1.0485  3.2846
  672THF     H611729   1.725   0.509   5.145  0.8351  1.1289  1.4296
  672THF     H711730   1.711   0.396   5.277  0.4467 -0.8977  0.2968
  672THF     C811731   1.919   0.448   5.218  0.3597 -0.4833 -0.0901
  672THF     C911732   1.980   0.437   5.087  0.0103  0.1689 -0.2503
  672THF    H1011733   1.955   0.374   5.289 -0.2972 -2.0151 -1.2761
  672THF    H1111734   1.931   0.545   5.266  0.4539 -1.7449  2.6184
  672THF    H1211735   1.996   0.537   5.048  0.7452  0.0931 -0.1604
  672THF    H1311736   2.079   0.393   5.101 -0.1449  0.2737  1.3932
  673THF     O111737   1.162   0.160   1.267  0.2584 -0.7200  0.0561
  673THF     C211738   1.293   0.174   1.308 -0.3860  0.1025  0.1222
  673THF     C311739   1.135   0.024   1.270 -0.9646  0.3651 -0.0745
  673THF     H411740   1.321   0.278   1.326  1.4537 -0.1955 -0.7802
  673THF     H511741   1.372   0.133   1.245 -1.4374 -0.3536 -0.9614
  673THF     H611742   1.030  -0.002   1.261 -1.0454  0.8184 -0.4520
  673THF     H711743   1.183  -0.026   1.187 -0.2470  0.6765  0.1407
  673THF     C811744   1.208  -0.023   1.402  0.2039  1.0024 -0.0248
  673THF     C911745   1.297   0.096   1.436  0.0570 -0.5437  0.2872
  673THF    H1011746   1.270  -0.110   1.382 -1.6842 -0.5473  0.6253
  673THF    H1111747   1.142  -0.043   1.485 -0.7013  2.1212 -0.4468
  673THF    H1211748   1.258   0.155   1.519  1.3493 -0.6786  1.0305
  673THF    H1311749   1.397   0.066   1.469  0.2815 -1.5964 -1.2809
  674THF     O111750   1.508   1.862   4.265  0.3905  0.0293  0.2172
  674THF     C211751   1.546   1.938   4.150 -0.1216 -0.0706  0.8160
  674THF     C311752   1.487   1.730   4.217 -0.1625 -0.2956 -0.1238
  674THF     H411753   1.598   2.032   4.165  1.3257 -0.9473  1.5021
  674THF     H511754   1.462   1.962   4.084 -0.9908 -0.3371  1.7945
  674THF     H611755   1.489   1.663   4.303  1.0741  0.2694  0.3081
  674THF     H711756   1.383   1.726   4.182 -0.5641  1.5485  0.7268
  674THF     C811757   1.586   1.698   4.110  0.2613 -0.3702 -0.1504
  674THF     C911758   1.639   1.842   4.083 -0.3114 -0.3892 -0.5838
  674THF    H1011759   1.536   1.655   4.023 -1.4547  1.2861 -0.0357
  674THF    H1111760   1.662   1.627   4.144 -0.0105  0.4786  2.4741
  674THF    H1211761   1.733   1.843   4.137 -2.0393 -1.2308  2.7017
  674THF    H1311762   1.658   1.864   3.978  2.5783  2.2143  0.3418
  675THF     O111763   0.149   4.680   3.008  0.3420 -0.9054 -0.0344
  675THF     C211764   0.120   4.618   2.884 -0.0733  0.0760  0.3333
  675THF     C311765   0.074   4.617   3.116 -0.0826 -0.6124 -0.5329
  675THF     H411766   0.210   4.573   2.842 -1.4577 -2.2808 -0.2690
  675THF     H511767   0.080   4.696   2.819  1.5014  1.8136  1.3397
  675THF     H611768   0.128   4.538   3.168  0.4022  0.9279  1.4041
  675THF     H711769   0.057   4.691   3.194 -0.5185 -1.8169  0.5350
  675THF     C811770  -0.042   4.554   3.039  0.5452 -0.5064  0.0437
  675THF     C911771   0.010   4.524   2.900 -0.6705 -0.0063 -0.1373
  675THF    H1011772  -0.111   4.638   3.034  0.8997 -0.2189 -0.0219
  675THF    H1111773  -0.090   4.474   3.095  0.1195  0.3977  1.0137
  675THF    H1211774   0.046   4.422   2.884 -0.9978 -0.1638  0.1121
  675THF    H1311775  -0.066   4.545   2.825  0.3672  1.2035 -0.8942
  676THF     O111776   1.668   0.403   2.794  0.6528 -0.2200 -0.3449
  676THF     C211777   1.710   0.431   2.928 -0.6014  0.2441  0.0219
  676THF     C311778   1.752   0.307   2.742 -0.1966  0.6039  0.1224
  676THF     H411779   1.687   0.339   2.982 -0.4652 -0.8643 -1.7112
  676THF     H511780   1.675   0.529   2.961  0.0809  0.6357 -0.3969
  676THF     H611781   1.728   0.208   2.780  0.3610  0.5521  0.3543
  676THF     H711782   1.741   0.299   2.634  0.5734 -0.9416  0.1306
  676THF     C811783   1.885   0.366   2.776 -0.7737  0.1610  0.3032
  676THF     C911784   1.864   0.435   2.911 -0.0934 -0.0785 -0.2818
  676THF    H1011785   1.924   0.431   2.698  2.0832 -1.4281  0.2476
  676THF    H1111786   1.960   0.288   2.787 -0.0396  0.5115 -1.7654
  676THF    H1211787   1.918   0.395   2.996  0.1204 -1.3227 -0.9762
  676THF    H1311788   1.886   0.542   2.910  1.1934 -0.3363 -0.9526
  677THF     O111789   4.731   4.289   4.593  0.2852  0.2141  0.0105
  677THF     C211790   4.805   4.332   4.480 -0.8154  0.1126  0.1933
  677THF     C311791   4.799   4.348   4.698 -0.5430  0.1238  0.7217
  677THF     H411792   4.809   4.441   4.466 -1.2195  0.0548 -0.4227
  677THF     H511793   4.778   4.291   4.383 -1.8702 -1.3349  1.0643
  677THF     H611794   4.793   4.457   4.689  2.2754  0.3293  0.5034
  677THF     H711795   4.747   4.311   4.786  0.7674 -0.8066  1.1361
  677THF     C811796   4.941   4.304   4.683  0.1714  0.3617  0.7694
  677THF     C911797   4.952   4.286   4.529  0.1216  0.2725 -0.0722
  677THF    H1011798   4.953   4.205   4.729  2.0615  0.3429  0.3217
  677THF    H1111799   5.012   4.376   4.723  1.5886 -0.1734 -0.6801
  677THF    H1211800   5.035   4.346   4.492  0.9690  0.2294  1.6531
  677THF    H1311801   4.972   4.182   4.502  1.8830  0.5436  0.0620
  678THF     O111802   4.244   3.168   1.889  0.4428  0.5383 -0.6359
  678THF     C211803   4.213   3.033   1.928 -0.3031  0.0885 -0.2455
  678THF     C311804   4.200   3.181   1.761 -0.0282 -0.2661  0.0343
  678THF     H411805   4.105   3.041   1.941 -0.8788 -0.9822 -3.4164
  678THF     H511806   4.251   2.997   2.024  0.3388  0.6108 -0.2986
  678THF     H611807   4.091   3.193   1.762 -0.0550 -0.4277  1.6053
  678THF     H711808   4.252   3.269   1.722  1.8015 -2.2117 -2.2152
  678THF     C811809   4.243   3.054   1.690  0.1721  0.4368  0.0413
  678THF     C911810   4.251   2.956   1.809  0.2652  0.2006  0.3015
  678THF    H1011811   4.344   3.070   1.653  0.7534  2.8136  2.3756
  678THF    H1111812   4.175   3.024   1.611 -0.7761  1.6783  0.3560
  678THF    H1211813   4.178   2.877   1.791 -1.9072  1.4324  2.9341
  678THF    H1311814   4.352   2.918   1.828  0.4275  1.2259  1.6196
  679THF     O111815   0.748   2.090   4.571  0.4833  0.3576  0.5247
  679THF     C211816   0.799   2.217   4.573 -0.1999 -0.4102 -0.6720
  679THF     C311817   0.645   2.079   4.671 -0.3735  0.1685 -0.2040
  679THF     H411818   0.813   2.263   4.476  0.2622  0.1920 -0.3305
  679THF     H511819   0.899   2.223   4.617 -0.6063  0.6369  0.1727
  679THF     H611820   0.552   2.089   4.615  0.1341 -0.0658 -1.1190
  679THF     H711821   0.655   1.978   4.711  2.1426 -0.0863 -1.3162
  679THF     C811822   0.663   2.197   4.763  0.2412 -0.0735 -0.4567
  679THF     C911823   0.697   2.301   4.657 -0.3214  0.2975  0.0678
  679THF    H1011824   0.743   2.180   4.836 -1.4680  1.6172  1.9745
  679THF    H1111825   0.576   2.223   4.823  1.6632  1.6444  0.9865
  679THF    H1211826   0.616   2.331   4.590 -0.1736  0.6892  0.0595
  679THF    H1311827   0.738   2.387   4.710  1.7339  0.3066 -1.4151
  680THF     O111828   4.058   4.513   0.302  0.5072  0.6737  0.1070
  680THF     C211829   3.920   4.542   0.290  0.3035 -0.5169  0.1881
  680THF     C311830   4.080   4.377   0.266 -0.3970 -0.2703 -0.0433
  680THF     H411831   3.893   4.555   0.186  0.3110 -1.4888  0.0501
  680THF     H511832   3.893   4.630   0.349 -1.3206  0.7717 -2.3409
  680THF     H611833   4.083   4.365   0.158 -0.2715 -0.7287  0.0090
  680THF     H711834   4.180   4.348   0.299 -0.1024 -0.1215 -0.8021
  680THF     C811835   3.968   4.302   0.343 -0.3683  0.5209  0.3648
  680THF     C911836   3.863   4.416   0.353  0.4477  0.4256 -0.0578
  680THF    H1011837   3.992   4.263   0.442 -1.7688 -2.5217 -0.3550
  680THF    H1111838   3.931   4.215   0.289 -1.6212  0.3239  1.4786
  680THF    H1211839   3.767   4.391   0.308  0.3164  2.6871 -1.1741
  680THF    H1311840   3.834   4.428   0.457 -0.8527 -0.5613 -0.2788
  681THF     O111841   5.340   4.293   0.461  0.1807  0.7005  0.3236
  681THF     C211842   5.267   4.376   0.544 -0.8069  0.2055 -0.1686
  681THF     C311843   5.416   4.374   0.361  0.0829  0.8244  0.2606
  681THF     H411844   5.253   4.338   0.645  1.6118  1.0797  0.5668
  681THF     H511845   5.167   4.404   0.510 -1.6425 -3.7131 -1.3967
  681THF     H611846   5.519   4.337   0.361 -0.6029 -1.3856  2.4870
  681THF     H711847   5.382   4.357   0.259 -1.8374 -1.7019  1.2129
  681THF     C811848   5.405   4.510   0.408 -0.3161  0.3446 -0.1925
  681THF     C911849   5.355   4.504   0.552 -0.0444  0.1604  1.2096
  681THF    H1011850   5.339   4.566   0.341  0.5121 -0.5882 -1.8738
  681THF    H1111851   5.500   4.561   0.396 -1.6089  3.2054  0.9851
  681THF    H1211852   5.439   4.496   0.621  0.1450 -0.3091  0.9291
  681THF    H1311853   5.298   4.596   0.565  2.4313  2.3221 -1.6647
  682THF     O111854   0.667   3.383   2.144  0.2112  0.1881 -0.4173
  682THF     C211855   0.751   3.485   2.118 -0.1030 -0.3674 -0.0044
  682THF     C311856   0.697   3.277   2.054  0.2107 -0.8242 -0.2079
  682THF     H411857   0.854   3.466   2.148  0.2136  0.6412 -0.4152
  682THF     H511858   0.721   3.581   2.159 -1.1213  0.6483 -2.8754
  682THF     H611859   0.772   3.203   2.084  0.5045 -0.4738 -0.0683
  682THF     H711860   0.600   3.234   2.031 -0.5948 -0.8635  2.8182
  682THF     C811861   0.749   3.344   1.930  0.1408 -0.0337  0.1788
  682THF     C911862   0.748   3.492   1.966  0.5333  0.2893 -0.1029
  682THF    H1011863   0.681   3.318   1.849 -0.2011  2.0884 -0.2664
  682THF    H1111864   0.846   3.307   1.898 -1.7092 -3.8801 -1.6007
  682THF    H1211865   0.837   3.548   1.938  0.0079  1.5237  0.6007
  682THF    H1311866   0.659   3.543   1.930 -0.2630 -1.6732 -1.0768
  683THF     O111867   4.033   0.218   4.731 -0.4594  0.1689  0.3002
  683THF     C211868   4.068   0.239   4.596 -0.1818 -0.1011  0.2035
  683THF     C311869   4.134   0.268   4.812  0.8689  0.7406 -0.3614
  683THF     H411870   3.984   0.215   4.532 -1.0673 -0.1566  1.3680
  683THF     H511871   4.144   0.169   4.560 -1.3248 -1.2661 -0.0338
  683THF     H611872   4.102   0.278   4.916 -1.1148  0.5193 -0.8942
  683THF     H711873   4.209   0.190   4.823 -0.6562 -0.5208  1.9300
  683THF     C811874   4.180   0.393   4.739  0.2077 -0.6847  0.6118
  683THF     C911875   4.108   0.379   4.600 -0.7423 -0.3447 -0.0730
  683THF    H1011876   4.289   0.400   4.734  0.3207 -1.5843  1.6607
  683THF    H1111877   4.150   0.487   4.785 -0.7105  0.1416 -1.5527
  683THF    H1211878   4.024   0.448   4.599 -1.4507 -1.1695  0.5615
  683THF    H1311879   4.169   0.400   4.512  0.3704 -1.3971  0.4154
  684THF     O111880   1.547   2.598   0.595 -0.3405  0.1668  0.0818
  684THF     C211881   1.555   2.515   0.710  0.2966  0.0807 -0.3323
  684THF     C311882   1.434   2.685   0.603  0.7289 -0.0882  0.4468
  684THF     H411883   1.651   2.470   0.736 -0.8976 -1.3474  1.8934
  684THF     H511884   1.480   2.438   0.697 -1.4866  1.8515 -1.0608
  684THF     H611885   1.467   2.788   0.590 -0.0662  0.0337 -0.7297
  684THF     H711886   1.352   2.666   0.534 -0.3322  1.7162  1.1333
  684THF     C811887   1.383   2.669   0.746  0.2729  0.5450 -0.2216
  684THF     C911888   1.497   2.612   0.820  0.3993  0.2652 -0.1376
  684THF    H1011889   1.302   2.598   0.758  0.5037  0.2695 -0.2994
  684THF    H1111890   1.355   2.763   0.794  0.8782  0.3029  0.6463
  684THF    H1211891   1.561   2.694   0.853  0.7350 -1.0214  2.7697
  684THF    H1311892   1.459   2.563   0.910  0.9772  1.2013  0.6360
  685THF     O111893   1.117   5.121   5.067 -0.0832  0.1977  0.1046
  685THF     C211894   1.025   5.224   5.098  0.8102  0.3355  0.2706
  685THF     C311895   1.185   5.090   5.190  0.0958  0.4668 -0.4133
  685THF     H411896   0.933   5.184   5.143  1.1587 -0.1087  0.5948
  685THF     H511897   0.991   5.286   5.015 -0.2708  0.7120  0.9651
  685THF     H611898   1.119   5.028   5.251  1.0448 -0.0800  0.0705
  685THF     H711899   1.280   5.038   5.181  1.1654  2.3190 -0.4067
  685THF     C811900   1.204   5.222   5.263  0.0568 -0.5194  0.0793
  685THF     C911901   1.108   5.309   5.190  0.5958 -0.0030 -0.8082
  685THF    H1011902   1.308   5.253   5.258 -0.0991 -0.1559 -1.8770
  685THF    H1111903   1.183   5.202   5.368  0.4255 -1.1909  0.0294
  685THF    H1211904   1.049   5.364   5.262  1.9232 -0.1847  0.4719
  685THF    H1311905   1.159   5.364   5.110  0.6479 -0.6058 -1.2029
  686THF     O111906   2.746   2.930   4.101  0.1090  0.3907 -0.1356
  686THF     C211907   2.777   2.900   3.967 -0.2429  0.2299  0.0055
  686THF     C311908   2.633   3.007   4.105 -0.7369 -0.4546  0.4115
  686THF     H411909   2.757   2.793   3.956 -0.3199  0.2023  0.3875
  686THF     H511910   2.882   2.912   3.942 -0.5639 -0.4522 -1.8428
  686THF     H611911   2.546   2.942   4.105  0.4790 -2.1576  0.8740
  686THF     H711912   2.628   3.065   4.197 -0.2918 -0.5862  0.5228
  686THF     C811913   2.651   3.095   3.983  0.7869  0.1908  0.0938
  686THF     C911914   2.697   2.991   3.884  0.0076  0.2748  0.3838
  686THF    H1011915   2.730   3.168   4.001 -0.4086  1.7909 -0.7937
  686THF    H1111916   2.561   3.148   3.951 -0.0677 -1.9272 -1.2262
  686THF    H1211917   2.616   2.929   3.846 -0.6776  0.3782  1.6458
  686THF    H1311918   2.756   3.038   3.805 -0.3659  1.1414  0.6053
  687THF     O111919   0.654   3.822   5.162  0.0251 -0.5368 -0.1256
  687THF     C211920   0.622   3.952   5.118  0.0125  0.6895 -0.1168
  687THF     C311921   0.673   3.832   5.302  0.0294 -0.1645 -0.3360
  687THF     H411922   0.521   3.974   5.153 -0.5205 -1.2067 -0.3266
  687THF     H511923   0.636   3.953   5.010  1.0155 -0.1374 -0.0148
  687THF     H611924   0.582   3.862   5.355  0.0683  1.5345 -1.1608
  687THF     H711925   0.722   3.751   5.356  1.1460  1.4663  1.2077
  687THF     C811926   0.762   3.953   5.310 -0.5254 -0.2656 -0.5426
  687THF     C911927   0.727   4.038   5.188 -0.5280  0.3876 -0.3848
  687THF    H1011928   0.866   3.923   5.304  0.6606  2.2326  3.4966
  687THF    H1111929   0.761   4.012   5.402 -0.9533  1.0296 -1.3508
  687THF    H1211930   0.694   4.139   5.213  0.8690  0.9485 -0.6525
  687THF    H1311931   0.817   4.051   5.127  0.9861  1.4541  1.9188
  688THF     O111932   3.886   2.294   1.907 -0.6365  0.8724  0.0624
  688THF     C211933   3.832   2.234   1.790 -0.0476 -0.4141 -0.4829
  688THF     C311934   4.013   2.246   1.936 -0.0980  0.0103 -0.0012
  688THF     H411935   3.825   2.301   1.704  1.4102  0.3447 -0.0407
  688THF     H511936   3.731   2.197   1.805  0.1302 -1.1607 -1.0331
  688THF     H611937   4.071   2.318   1.879 -0.0323 -0.1600 -0.1505
  688THF     H711938   4.037   2.260   2.041 -0.9580  2.5695 -0.0684
  688THF     C811939   4.014   2.108   1.876 -0.3837  0.3814 -0.1581
  688THF     C911940   3.932   2.126   1.750  0.1105 -0.7015  0.1687
  688THF    H1011941   3.948   2.049   1.939  0.2134  0.2299  0.3266
  688THF    H1111942   4.109   2.055   1.880  0.1033  1.3131  1.6277
  688THF    H1211943   3.990   2.161   1.664 -1.8335 -1.4890 -1.5464
  688THF    H1311944   3.890   2.031   1.717 -1.6764 -0.1978  0.9100
  689THF     O111945   4.658   2.142   4.897  0.1801 -0.4085  0.0177
  689THF     C211946   4.562   2.140   4.793  0.0643 -0.5068 -0.1781
  689THF     C311947   4.765   2.051   4.865  0.5551  0.7630  0.0828
  689THF     H411948   4.619   2.193   4.717  0.6141  0.8275  1.1076
  689THF     H511949   4.470   2.184   4.832  0.0732 -0.5707 -0.0849
  689THF     H611950   4.828   2.115   4.804 -0.4951  1.2176 -0.5624
  689THF     H711951   4.815   2.011   4.953 -2.1899  0.9980  1.8711
  689THF     C811952   4.706   1.949   4.778  0.0677 -0.0517  0.4291
  689THF     C911953   4.557   1.989   4.762  0.2990  0.3358  0.5604
  689THF    H1011954   4.708   1.849   4.822 -0.1791  0.5726  1.9258
  689THF    H1111955   4.753   1.950   4.680  0.1882  1.3948  0.4869
  689THF    H1211956   4.530   1.972   4.658  3.4275  1.2497 -0.5200
  689THF    H1311957   4.497   1.937   4.836 -0.1287 -0.0911 -0.0742
  690THF     O111958   3.669   3.396   1.011  0.4304 -0.3473 -0.6424
  690THF     C211959   3.647   3.303   1.118  0.0246  0.0673 -0.3763
  690THF     C311960   3.639   3.355   0.885  0.5776  0.1198 -0.0098
  690THF     H411961   3.543   3.279   1.137  0.6249 -3.3343 -0.7977
  690THF     H511962   3.705   3.329   1.207 -1.5268  1.0651  0.3802
  690THF     H611963   3.531   3.369   0.875 -0.2584 -1.7281  4.0487
  690THF     H711964   3.691   3.393   0.797 -0.9466  0.8806 -0.6200
  690THF     C811965   3.655   3.200   0.900  0.0625 -0.5179  0.0282
  690THF     C911966   3.703   3.184   1.046  0.0690  0.5104 -0.4910
  690THF    H1011967   3.714   3.140   0.830  2.2934  0.2720  1.1562
  690THF    H1111968   3.553   3.161   0.894  0.1667 -0.6428 -1.2680
  690THF    H1211969   3.673   3.089   1.091 -1.5133  1.2743  0.1406
  690THF    H1311970   3.811   3.193   1.060 -0.0211  0.0187  0.6645
  691THF     O111971   0.146   4.137   5.077 -0.1217  0.1986  0.3821
  691THF     C211972   0.227   4.058   4.984 -0.9955  0.1016  0.4715
  691THF     C311973   0.145   4.273   5.030  0.0735  0.1587  0.0464
  691THF     H411974   0.175   3.981   4.929 -0.5346  0.1064  0.0253
  691THF     H511975   0.307   4.016   5.045  1.0591  1.5523 -1.0915
  691THF     H611976   0.060   4.288   4.963  0.0524 -1.3341 -0.2897
  691THF     H711977   0.130   4.342   5.113 -0.7924 -0.3691  0.3422
  691THF     C811978   0.275   4.293   4.951  0.5775 -0.1395 -0.0415
  691THF     C911979   0.295   4.153   4.885  0.2452 -0.1542  0.1802
  691THF    H1011980   0.359   4.308   5.019  0.7458 -2.0057  0.2070
  691THF    H1111981   0.277   4.374   4.877  0.6334  0.8981  1.0699
  691THF    H1211982   0.248   4.151   4.787  2.2440  0.2897 -0.8544
  691THF    H1311983   0.401   4.131   4.869  0.3893  0.6730 -0.0370
  692THF     O111984   0.888   4.225   3.533 -1.0150  0.2940  0.3203
  692THF     C211985   0.836   4.307   3.636  0.2824  0.0547 -0.2093
  692THF     C311986   1.033   4.215   3.551 -0.4341  0.2020  0.1072
  692THF     H411987   0.728   4.315   3.641  0.2903  0.1570 -0.1932
  692THF     H511988   0.870   4.411   3.627  1.8688 -0.4372 -0.2357
  692THF     H611989   1.065   4.118   3.514 -0.2205  1.1882 -2.4824
  692THF     H711990   1.093   4.290   3.499  1.3705 -0.9753  0.4066
  692THF     C811991   1.050   4.218   3.702  0.7988 -0.0777 -0.2813
  692THF     C911992   0.910   4.240   3.748  0.2593  0.1457 -0.2084
  692THF    H1011993   1.110   4.300   3.743 -1.9885  1.2808  1.4400
  692THF    H1111994   1.098   4.128   3.739 -1.0083 -0.3303  1.6404
  692THF    H1211995   0.862   4.143   3.765 -1.7459  0.9407 -1.0209
  692THF    H1311996   0.913   4.290   3.845  1.1057 -1.7283  0.7867
  693THF     O111997   5.170   2.969   1.675 -0.3995 -0.3056  0.1964
  693THF     C211998   5.037   2.967   1.722  0.4943 -0.0725 -0.2174
  693THF     C311999   5.169   3.066   1.572  0.5420 -0.3438 -1.3423
  693THF     H412000   5.027   2.913   1.816 -0.2089 -0.5277 -0.5495
  693THF     H512001   4.978   2.921   1.643 -0.0511 -0.3952  0.3654
  693THF     H612002   5.270   3.103   1.554  0.2109  0.1943 -2.1810
  693THF     H712003   5.121   3.035   1.479  0.0037 -1.6736 -0.6350
  693THF     C812004   5.079   3.181   1.611 -0.0970  0.2930 -0.6573
  693THF     C912005   5.002   3.117   1.730 -0.2463 -0.4771 -0.2809
  693THF    H1012006   5.016   3.219   1.531 -0.9371 -0.3285 -0.2956
  693THF    H1112007   5.133   3.266   1.653 -0.8133 -0.8446  2.9035
  693THF    H1212008   5.030   3.168   1.822  0.7406  0.9334 -1.3148
  693THF    H1312009   4.895   3.127   1.715 -0.5859  1.5245  2.6750
  694THF     O112010   0.720   3.099   2.898 -0.2622  0.0584  0.0641
  694THF     C212011   0.789   3.227   2.904  0.0727 -0.4977  0.5853
  694THF     C312012   0.685   3.064   3.030  0.0153 -0.0803  0.6466
  694THF     H412013   0.769   3.288   2.816 -1.4630  0.7117  1.7046
  694THF     H512014   0.898   3.219   2.912  0.3103  0.9803 -0.7795
  694THF     H612015   0.577   3.053   3.021 -0.0691  0.9158  0.3825
  694THF     H712016   0.729   2.969   3.061 -2.7586 -1.5010  0.6218
  694THF     C812017   0.725   3.190   3.113 -0.1730  0.3776  0.3657
  694THF     C912018   0.737   3.301   3.024  0.1583 -0.3792 -0.8289
  694THF    H1012019   0.821   3.170   3.162  1.0675 -0.4450 -2.2015
  694THF    H1112020   0.661   3.205   3.200  1.4227 -2.3370  2.1765
  694THF    H1212021   0.640   3.346   3.001  0.2294  0.0539 -0.2983
  694THF    H1312022   0.801   3.382   3.060  0.1066 -1.2958  1.4794
  695THF     O112023   2.543   2.335   1.050 -0.7445 -0.7203 -0.9404
  695THF     C212024   2.570   2.200   1.051  0.2646  0.6713 -0.1595
  695THF     C312025   2.400   2.345   1.066  0.0798 -0.1640 -0.2035
  695THF     H412026   2.673   2.182   1.083  0.2218  0.1077 -0.3285
  695THF     H512027   2.555   2.145   0.957  0.7651 -2.3176  1.3741
  695THF     H612028   2.357   2.445   1.079 -1.4648 -0.7428 -0.6241
  695THF     H712029   2.358   2.318   0.970 -0.0079  1.6265 -0.7076
  695THF     C812030   2.377   2.248   1.178 -0.2658  0.1439 -0.1264
  695THF     C912031   2.471   2.132   1.149  0.4719  0.1830  0.2401
  695THF    H1012032   2.272   2.228   1.195 -0.4653  0.0281 -1.3843
  695THF    H1112033   2.423   2.292   1.267  3.3231 -1.4699 -0.9908
  695THF    H1212034   2.521   2.094   1.238  1.3165 -0.5102 -0.5144
  695THF    H1312035   2.414   2.054   1.099 -1.9413  0.6054  2.0983
  696THF     O112036   4.384   3.433   2.872 -0.4197 -0.2504 -0.1489
  696THF     C212037   4.383   3.351   2.987 -0.1493 -0.3774  0.3583
  696THF     C312038   4.464   3.548   2.911  0.5842  0.0537  0.4109
  696THF     H412039   4.352   3.251   2.957 -2.4692  0.8321 -1.6331
  696THF     H512040   4.313   3.403   3.052 -0.9782 -0.9581 -0.0583
  696THF     H612041   4.503   3.607   2.829  2.4814 -0.7000  0.7331
  696THF     H712042   4.392   3.602   2.973 -2.5931 -2.9596 -0.3563
  696THF     C812043   4.573   3.490   2.999 -0.4298  0.0341  0.2041
  696THF     C912044   4.530   3.350   3.043  0.2637 -0.0547  0.4224
  696THF    H1012045   4.596   3.557   3.082  1.3766  1.6869 -1.5159
  696THF    H1112046   4.662   3.478   2.938 -1.1410 -1.0020 -0.6618
  696THF    H1212047   4.590   3.275   2.991  0.8180  1.9618 -2.0676
  696THF    H1312048   4.531   3.338   3.151 -1.8444 -3.4918  0.1991
  697THF     O112049   4.957   3.442   2.077  0.7909 -0.5146 -0.0192
  697THF     C212050   5.084   3.485   2.122  0.6633 -0.5117  0.4660
  697THF     C312051   4.916   3.323   2.144  0.3965  0.5260  0.2103
  697THF     H412052   5.090   3.564   2.197 -1.1848 -1.4599  1.7200
  697THF     H512053   5.140   3.522   2.037 -0.0733 -2.0664 -0.7358
  697THF     H612054   4.871   3.344   2.241  0.1356  0.1908  0.1635
  697THF     H712055   4.847   3.265   2.082  0.2186  1.1548 -0.1934
  697THF     C812056   5.042   3.252   2.155 -0.3600  0.2998  0.0852
  697THF     C912057   5.145   3.361   2.184 -0.0946 -0.0884  0.0729
  697THF    H1012058   5.058   3.205   2.057 -3.3411 -1.1073  0.1569
  697THF    H1112059   5.036   3.164   2.219  0.2647 -0.0523 -0.3164
  697THF    H1212060   5.153   3.372   2.292  0.0216  0.1506  0.0402
  697THF    H1312061   5.245   3.329   2.155  0.1126 -0.8142  1.4864
  698THF     O112062   3.334   4.296   1.540  0.3472  0.5123  0.1816
  698THF     C212063   3.288   4.202   1.642 -0.5853  0.5006  0.7078
  698THF     C312064   3.264   4.411   1.572 -0.1346  0.1235  0.5508
  698THF     H412065   3.354   4.116   1.632  0.4827  1.1944  1.6620
  698THF     H512066   3.184   4.170   1.630 -0.6023  0.7767  0.0884
  698THF     H612067   3.312   4.502   1.536  0.1842  0.2008  1.1587
  698THF     H712068   3.166   4.404   1.524  0.1844 -0.2338 -0.0532
  698THF     C812069   3.258   4.411   1.724  0.0005 -0.2867 -0.1348
  698THF     C912070   3.303   4.276   1.772  0.2923 -0.2110  0.5531
  698THF    H1012071   3.157   4.428   1.760  0.2699  0.8955  0.1199
  698THF    H1112072   3.320   4.484   1.776 -0.4404 -0.1501  0.1987
  698THF    H1212073   3.399   4.265   1.823  1.6458  0.0722 -1.8032
  698THF    H1312074   3.236   4.237   1.848  0.6643 -2.4169 -0.2001
  699THF     O112075   5.334   3.985   5.461  0.0919 -0.0681 -0.3690
  699THF     C212076   5.357   4.087   5.368 -0.8376 -0.8275 -0.7776
  699THF     C312077   5.405   3.867   5.427 -0.6285 -0.3113  0.2426
  699THF     H412078   5.420   4.162   5.416 -0.8684 -0.5483 -1.1734
  699THF     H512079   5.260   4.129   5.343 -1.4255 -1.5417  0.2128
  699THF     H612080   5.501   3.868   5.478  0.1890 -0.8541 -1.2290
  699THF     H712081   5.363   3.770   5.453  2.4635 -2.1179 -0.9441
  699THF     C812082   5.433   3.874   5.280 -0.0120 -0.3081  0.3436
  699THF     C912083   5.430   4.017   5.246 -0.1247 -0.7068  0.4347
  699THF    H1012084   5.349   3.837   5.221  1.2474 -1.3165 -0.8773
  699THF    H1112085   5.523   3.826   5.244  0.8382  2.4970 -1.5825
  699THF    H1212086   5.534   4.046   5.252 -0.4870  1.1287 -1.0866
  699THF    H1312087   5.401   4.043   5.144 -1.7908  1.8945  1.4556
  700THF     O112088   4.856   0.816   5.031 -0.0512 -0.0372 -0.4852
  700THF     C212089   4.760   0.795   5.141  0.0198  0.9780  0.5818
  700THF     C312090   4.876   0.694   4.967 -0.0936  0.0358  0.4361
  700THF     H412091   4.662   0.779   5.096  1.0506 -0.1693 -1.3818
  700THF     H512092   4.768   0.868   5.222 -1.1499  0.1964  1.4425
  700THF     H612093   4.822   0.683   4.873 -0.8757 -0.6879  0.9560
  700THF     H712094   4.984   0.684   4.957 -0.3338 -0.4605 -2.4398
  700THF     C812095   4.824   0.590   5.072  0.5560 -0.1925  0.4316
  700THF     C912096   4.807   0.663   5.198 -0.6196 -0.3578  0.3347
  700THF    H1012097   4.884   0.501   5.093  0.4990  0.4052  3.5417
  700THF    H1112098   4.731   0.540   5.042  1.2974 -1.1093 -0.4389
  700THF    H1212099   4.752   0.616   5.279 -2.2665  2.6811  1.1455
  700THF    H1312100   4.910   0.680   5.231 -0.1725  0.1160 -1.1965
  701THF     O112101   5.256   5.034   4.752 -0.3947  0.3172 -1.1650
  701THF     C212102   5.220   5.167   4.793 -0.2628  0.4501 -0.0910
  701THF     C312103   5.402   5.027   4.753  0.5771  0.3853  0.0620
  701THF     H412104   5.128   5.160   4.853  0.8211  1.9610  1.8792
  701THF     H512105   5.187   5.226   4.707  0.1785  0.3428 -0.3322
  701THF     H612106   5.431   4.955   4.830  2.7529  0.8139 -0.2960
  701THF     H712107   5.445   4.988   4.661 -2.3874 -1.4287 -0.6753
  701THF     C812108   5.453   5.165   4.791  0.0970  0.1533 -0.0242
  701THF     C912109   5.343   5.226   4.866  0.4706  0.3237 -0.6060
  701THF    H1012110   5.470   5.227   4.703 -1.4400  0.4296 -0.1651
  701THF    H1112111   5.539   5.163   4.857  0.3040  0.0870 -0.2929
  701THF    H1212112   5.328   5.189   4.968 -2.6989 -0.8211 -1.3522
  701THF    H1312113   5.360   5.333   4.876  3.5351 -0.1130 -0.1047
  702THF     O112114   5.427   0.925   1.807  0.3236  0.0397 -0.3835
  702THF     C212115   5.338   1.035   1.765  0.5077 -0.3233  0.1460
  702THF     C312116   5.440   0.943   1.943  0.3994 -0.5511  0.4036
  702THF     H412117   5.280   1.025   1.673  1.4948  0.8531 -0.6300
  702THF     H512118   5.400   1.123   1.749 -2.3946  1.9660  0.6493
  702THF     H612119   5.482   0.856   1.993 -2.4540 -3.0253 -1.1479
  702THF     H712120   5.498   1.035   1.954 -1.3781  0.8768 -1.3603
  702THF     C812121   5.290   0.948   1.977  0.6758 -0.1813  0.1837
  702THF     C912122   5.229   1.046   1.875 -0.0217  0.1625 -0.6656
  702THF    H1012123   5.291   0.984   2.080  1.6842 -1.7046  0.7588
  702THF    H1112124   5.233   0.855   1.978 -0.5188  0.4064 -3.0875
  702THF    H1212125   5.132   1.014   1.837 -0.1755  1.4335 -1.4114
  702THF    H1312126   5.219   1.141   1.926 -0.9210  0.6579 -1.7258
  703THF     O112127   4.973   4.515   3.757 -0.5135  0.5752 -0.1010
  703THF     C212128   4.908   4.388   3.758  0.4916  0.0410  0.9930
  703THF     C312129   4.890   4.618   3.695 -0.0053  0.6093 -0.6840
  703THF     H412130   4.936   4.330   3.846  3.3264 -1.7810 -0.9543
  703THF     H512131   4.933   4.326   3.673 -1.3747 -1.4543  1.4629
  703THF     H612132   4.887   4.700   3.768 -1.2766  0.1152 -0.1487
  703THF     H712133   4.940   4.635   3.600  0.1369  0.2326 -0.6765
  703THF     C812134   4.752   4.558   3.689 -0.1280 -1.3143  0.5755
  703THF     C912135   4.753   4.428   3.764 -0.8091 -1.0690 -0.2271
  703THF    H1012136   4.725   4.545   3.584 -0.0723  1.5683  0.1116
  703THF    H1112137   4.673   4.619   3.732 -1.3538 -2.0842 -0.4774
  703THF    H1212138   4.718   4.449   3.865  0.1364  1.8703 -0.4049
  703THF    H1312139   4.685   4.362   3.710 -0.0168 -0.6421 -1.8086
  704THF     O112140   0.548   3.009   2.459  0.1665  0.7360  0.0064
  704THF     C212141   0.467   3.100   2.389  0.5385  0.5494  0.1362
  704THF     C312142   0.612   2.917   2.376 -0.2455  0.0803 -0.3317
  704THF     H412143   0.513   3.199   2.391 -0.8715  1.2172  1.2786
  704THF     H512144   0.368   3.106   2.434  1.2345  2.0605  1.5772
  704THF     H612145   0.720   2.916   2.391 -0.2558  2.1331  0.0678
  704THF     H712146   0.571   2.821   2.408  0.9630 -0.5170 -0.5375
  704THF     C812147   0.578   2.963   2.231 -0.9445  0.3849 -1.0388
  704THF     C912148   0.454   3.050   2.245 -0.1976  0.5909 -0.5677
  704THF    H1012149   0.571   2.875   2.166  1.3761 -2.7181  2.5125
  704THF    H1112150   0.657   3.028   2.192 -1.7131  0.5714 -2.3333
  704THF    H1212151   0.447   3.139   2.182 -1.2559  0.8467 -0.1052
  704THF    H1312152   0.360   2.995   2.237  1.3954 -2.0859 -2.5546
  705THF     O112153   3.077   5.322   4.094  0.2281  0.6191  0.5625
  705THF     C212154   3.119   5.244   3.976 -0.0309 -0.4547 -0.1916
  705THF     C312155   2.940   5.358   4.073 -1.0922 -0.7708 -0.6080
  705THF     H412156   3.204   5.178   3.990 -1.8120 -3.0964 -1.0794
  705THF     H512157   3.148   5.310   3.894 -0.0427  0.6279  0.6492
  705THF     H612158   2.902   5.404   4.164 -1.7336  1.0683 -1.7515
  705THF     H712159   2.943   5.429   3.990 -0.8851 -1.3057 -1.0598
  705THF     C812160   2.885   5.223   4.034  0.0960 -0.3429 -0.6313
  705THF     C912161   2.995   5.172   3.937  1.5479  0.5544  0.2754
  705THF    H1012162   2.794   5.223   3.975 -0.9106  1.5201  0.7896
  705THF    H1112163   2.878   5.157   4.120  0.3665 -0.4630 -0.6998
  705THF    H1212164   3.001   5.065   3.957 -1.4502  0.5193  1.5199
  705THF    H1312165   2.957   5.173   3.835 -2.2214 -2.8683  1.3817
  706THF     O112166   3.983   3.022   2.338  0.0441 -0.2345  0.2395
  706THF     C212167   3.851   3.056   2.373  0.9724  0.6006  0.0588
  706THF     C312168   3.969   2.952   2.216  0.0796  0.0963 -0.3942
  706THF     H412169   3.821   3.161   2.373 -0.5415  0.2230 -1.9271
  706THF     H512170   3.839   3.030   2.478  1.2079 -0.0515 -0.0749
  706THF     H612171   4.020   3.007   2.138 -0.2649  0.5251 -0.3179
  706THF     H712172   4.026   2.859   2.209  0.3291  0.3696 -2.5333
  706THF     C812173   3.826   2.947   2.168  0.1471 -0.1370  0.1266
  706THF     C912174   3.745   2.981   2.292 -0.3316 -0.0423  0.3018
  706THF    H1012175   3.788   2.857   2.120 -0.0673  0.5198 -0.9912
  706THF    H1112176   3.816   3.017   2.084 -1.8771  0.4089  0.7723
  706THF    H1212177   3.652   3.033   2.271 -0.8120 -1.6640 -1.9165
  706THF    H1312178   3.708   2.892   2.343 -1.3989  1.1377  1.6516
  707THF     O112179   2.928   0.202   0.574 -0.1712  0.1238  0.4147
  707THF     C212180   2.970   0.067   0.598 -0.0211 -0.3368 -0.2947
  707THF     C312181   3.007   0.246   0.457 -0.3645  0.5683 -1.0454
  707THF     H412182   2.925   0.004   0.522  0.1528 -0.9452  0.0945
  707THF     H512183   2.926   0.021   0.687 -0.6162 -0.4085 -0.6211
  707THF     H612184   2.953   0.216   0.367 -2.0943 -0.2249  0.1922
  707THF     H712185   3.024   0.354   0.450  0.7613  0.4402 -0.4743
  707THF     C812186   3.139   0.167   0.475 -0.2395  0.3564 -1.1413
  707THF     C912187   3.125   0.063   0.592  1.1667 -0.1669  0.0578
  707THF    H1012188   3.211   0.238   0.517  0.5339  0.9371 -3.2773
  707THF    H1112189   3.181   0.111   0.392  0.5830 -1.0317  0.1582
  707THF    H1212190   3.179  -0.024   0.555  0.0219 -0.5449 -0.7602
  707THF    H1312191   3.174   0.092   0.685  1.6428 -1.6470  0.2980
  708THF     O112192   4.688   3.563   3.777  0.7289 -0.1867  0.2806
  708THF     C212193   4.612   3.689   3.797  0.5857  0.1847 -0.3004
  708THF     C312194   4.749   3.535   3.903 -0.0444 -0.0232 -0.9805
  708THF     H412195   4.538   3.726   3.726  0.1993  1.1168  0.5672
  708THF     H512196   4.684   3.770   3.813  0.2622  1.5118 -4.2634
  708THF     H612197   4.779   3.431   3.912  1.8373  0.4871 -0.8924
  708THF     H712198   4.832   3.604   3.918 -0.6752  0.8477 -1.4127
  708THF     C812199   4.630   3.560   3.996  0.3519 -0.8401  0.2091
  708THF     C912200   4.533   3.653   3.926 -0.2040 -0.0700  0.4154
  708THF    H1012201   4.659   3.611   4.088 -1.1695 -1.5861  1.1331
  708THF    H1112202   4.573   3.472   4.028 -0.5674 -0.4762 -0.4182
  708THF    H1212203   4.444   3.595   3.906 -1.2760  1.8075 -0.5236
  708THF    H1312204   4.507   3.744   3.981  0.9208  1.0757 -0.8650
  709THF     O112205   1.139   1.919   4.019 -0.3987  0.0785  0.2224
  709THF     C212206   1.086   1.782   3.991  0.2274  0.1257  0.4577
  709THF     C312207   1.208   1.952   3.904  0.0663  0.3625  0.0132
  709THF     H412208   0.994   1.793   3.935  0.5883 -1.1491 -0.4216
  709THF     H512209   1.066   1.724   4.081 -2.8888 -0.9203 -0.7980
  709THF     H612210   1.137   1.989   3.830  2.9210  0.3227 -2.9704
  709THF     H712211   1.274   2.036   3.921  0.0336  0.0871  1.6728
  709THF     C812212   1.273   1.820   3.853  0.2485 -0.7050 -0.2659
  709THF     C912213   1.174   1.715   3.886  0.3592 -0.7159 -0.5387
  709THF    H1012214   1.352   1.804   3.927 -1.8113 -1.2273  1.9322
  709THF    H1112215   1.309   1.819   3.750  1.3013 -0.7440  0.0846
  709THF    H1212216   1.115   1.696   3.796  0.4189 -0.3968 -0.6465
  709THF    H1312217   1.216   1.619   3.917 -0.3009 -1.2523 -1.2666
  710THF     O112218   2.145   4.215   5.494  0.0102 -0.3593 -0.3013
  710THF     C212219   2.218   4.337   5.500 -0.2120  0.4384  0.2180
  710THF     C312220   2.023   4.246   5.418 -0.5479 -0.1964  0.4502
  710THF     H412221   2.323   4.317   5.521  0.0209  1.3251 -0.0856
  710THF     H512222   2.181   4.404   5.576  0.3789 -1.2945  2.1322
  710THF     H612223   1.980   4.167   5.357 -0.4350 -0.4427  0.6887
  710THF     H712224   1.942   4.252   5.492 -1.0208 -0.3817 -0.0445
  710THF     C812225   2.057   4.373   5.343  0.7223 -0.1377  0.8168
  710THF     C912226   2.202   4.402   5.362  0.1297 -0.3672 -0.3432
  710THF    H1012227   1.994   4.453   5.383 -0.4787 -1.6826  2.2201
  710THF    H1112228   2.037   4.352   5.238  0.6672 -1.7419  1.1157
  710THF    H1212229   2.265   4.350   5.289 -2.3026 -0.1767 -2.7628
  710THF    H1312230   2.225   4.508   5.369 -0.5493 -0.3042  1.5860
  711THF     O112231   2.964   2.319   3.999 -0.1051  0.6024 -0.1369
  711THF     C212232   2.937   2.438   4.069  0.2761  0.0418  0.3342
  711THF     C312233   3.104   2.301   4.009  0.3271 -0.0708 -0.1070
  711THF     H412234   2.846   2.424   4.127  0.6065  0.5543  0.9932
  711THF     H512235   2.917   2.517   3.996  0.8322 -0.6864 -0.6267
  711THF     H612236   3.137   2.202   3.977 -0.2656  0.8501 -4.0089
  711THF     H712237   3.151   2.368   3.938 -0.0037  1.5104  1.1052
  711THF     C812238   3.139   2.339   4.149 -0.3321 -0.3064 -0.0250
  711THF     C912239   3.043   2.441   4.182 -0.4621 -0.0868  0.4286
  711THF    H1012240   3.237   2.384   4.165 -1.0326  0.5835  2.0744
  711THF    H1112241   3.129   2.254   4.217  1.9864 -0.1853  0.5494
  711THF    H1212242   2.988   2.416   4.272 -2.8121 -0.5228 -1.0427
  711THF    H1312243   3.092   2.537   4.197  0.8296 -0.7436  0.5914
  712THF     O112244   4.046   2.307   3.272  0.4932 -0.6640  0.3858
  712THF     C212245   4.081   2.415   3.191  0.0781 -0.0337 -0.0842
  712THF     C312246   3.946   2.337   3.364 -0.1245 -0.4567 -0.5360
  712THF     H412247   4.060   2.393   3.086 -0.8888  1.5155 -0.2599
  712THF     H512248   4.189   2.427   3.193  0.3046 -1.7253  2.8845
  712THF     H612249   3.847   2.308   3.327  0.4205 -0.1453 -2.3269
  712THF     H712250   3.962   2.276   3.453 -0.4996 -2.2966 -1.6692
  712THF     C812251   3.946   2.489   3.372 -0.1869 -0.2063 -0.2255
  712THF     C912252   3.994   2.534   3.230  0.1769 -1.0930  0.3585
  712THF    H1012253   4.013   2.523   3.451 -0.0482 -0.0473 -0.4101
  712THF    H1112254   3.849   2.534   3.392  0.4249  1.1869 -0.2690
  712THF    H1212255   3.903   2.547   3.171 -0.4366  2.0017  1.7651
  712THF    H1312256   4.042   2.631   3.241 -3.4293  0.7131  1.7841
  713THF     O112257   0.710   0.487   2.910  0.6032 -0.3872  0.2651
  713THF     C212258   0.793   0.433   3.013  0.5052  0.3158 -0.1885
  713THF     C312259   0.687   0.383   2.820 -0.1244 -0.6879  0.3042
  713THF     H412260   0.797   0.490   3.106  2.0427  2.2173 -1.3573
  713THF     H512261   0.895   0.406   2.986  0.5698 -0.1656  0.5190
  713THF     H612262   0.597   0.396   2.760  0.4747  0.4888 -0.3904
  713THF     H712263   0.776   0.377   2.756 -0.7621 -0.1469 -0.6581
  713THF     C812264   0.665   0.260   2.907 -0.3373  0.4238  0.3022
  713THF     C912265   0.718   0.301   3.043  0.4736 -0.4474 -0.3399
  713THF    H1012266   0.713   0.171   2.868 -0.3217 -0.0824  1.4358
  713THF    H1112267   0.559   0.233   2.902 -0.4835  1.2165 -2.2071
  713THF    H1212268   0.628   0.308   3.104 -1.1294 -0.5386 -2.5938
  713THF    H1312269   0.788   0.233   3.091 -1.8934 -1.5157  1.8672
  714THF     O112270   3.344   2.409   1.386 -0.2152 -0.0877 -0.0206
  714THF     C212271   3.250   2.352   1.485  0.2093 -0.0545 -0.2744
  714THF     C312272   3.459   2.432   1.463  0.2171 -0.6341 -0.7623
  714THF     H412273   3.255   2.244   1.498 -1.3852 -0.2269 -0.9080
  714THF     H512274   3.147   2.374   1.456  0.8698  2.6249 -0.8201
  714THF     H612275   3.527   2.347   1.465 -1.2460 -1.8840  1.4495
  714THF     H712276   3.519   2.508   1.414 -0.6731  0.2852 -0.4598
  714THF     C812277   3.413   2.472   1.602 -0.1025  0.4417  0.4829
  714THF     C912278   3.273   2.419   1.617  0.4419 -0.3465  0.0294
  714THF    H1012279   3.419   2.578   1.627  1.7992  0.2846  0.8895
  714THF    H1112280   3.476   2.427   1.679 -0.5283  0.5902  0.9267
  714THF    H1212281   3.261   2.351   1.702  0.0900  0.6034  0.7654
  714THF    H1312282   3.205   2.502   1.638  0.2355 -0.8264  1.3915
  715THF     O112283   1.953   4.493   3.328  0.6466 -0.3754  0.0537
  715THF     C212284   2.074   4.429   3.285  0.4799 -0.1975  0.2073
  715THF     C312285   1.842   4.425   3.273 -0.8641 -0.2955  0.2874
  715THF     H412286   2.147   4.409   3.364 -0.7175  0.5072  1.5217
  715THF     H512287   2.112   4.495   3.207 -0.2881 -1.9028 -1.7113
  715THF     H612288   1.806   4.354   3.348  2.2651 -0.5113  1.7167
  715THF     H712289   1.763   4.498   3.255 -2.1474 -2.0058 -1.4786
  715THF     C812290   1.888   4.334   3.162  0.0696 -0.0321 -0.1016
  715THF     C912291   2.034   4.305   3.203 -0.0992 -0.2198 -0.2726
  715THF    H1012292   1.901   4.384   3.066  0.3054 -1.9339 -1.1041
  715THF    H1112293   1.830   4.244   3.140  0.1237 -0.1052  0.0550
  715THF    H1212294   2.027   4.230   3.282  0.0006 -1.7586 -1.6622
  715THF    H1312295   2.109   4.283   3.127  1.4390  1.7707  0.5975
  716THF     O112296   1.673   0.522   0.001 -0.0049 -0.6894 -0.1622
  716THF     C212297   1.808   0.547   0.056 -0.7509  0.2949  0.7739
  716THF     C312298   1.626   0.659  -0.012 -0.4973 -0.3152 -0.1123
  716THF     H412299   1.873   0.579  -0.026 -1.4213  2.7735  1.1459
  716THF     H512300   1.842   0.449   0.091 -2.2605 -1.3754 -2.0438
  716THF     H612301   1.676   0.724  -0.084 -0.2209 -0.1762  0.2029
  716THF     H712302   1.519   0.664  -0.031  0.0556  0.2476 -4.0203
  716THF     C812303   1.640   0.719   0.119  0.2704 -0.1536 -0.5882
  716THF     C912304   1.780   0.658   0.160 -0.2170  0.4299  0.6936
  716THF    H1012305   1.571   0.688   0.197  1.6698  1.0168  1.1954
  716THF    H1112306   1.647   0.828   0.120  1.5669 -0.2131 -0.5233
  716THF    H1212307   1.858   0.734   0.166 -0.5488  0.7825  0.5794
  716THF    H1312308   1.778   0.623   0.263 -0.2480  0.3398  0.6626
  717THF     O112309   5.318   1.155   5.050 -0.0433 -0.1209 -0.2877
  717THF     C212310   5.377   1.046   5.108 -0.0551  0.9021  0.8147
  717THF     C312311   5.380   1.181   4.924  0.3857  0.2500 -0.1422
  717THF     H412312   5.307   0.965   5.085  0.3583 -0.3910  3.6180
  717THF     H512313   5.394   1.042   5.216 -0.4629  0.6671  0.8732
  717THF     H612314   5.309   1.159   4.845  2.1769 -2.3702 -1.1227
  717THF     H712315   5.417   1.283   4.922 -1.8856  1.1363 -1.1780
  717THF     C812316   5.496   1.100   4.908 -0.5046  0.0699  0.0538
  717THF     C912317   5.517   1.033   5.042 -0.0223  0.2238  0.2278
  717THF    H1012318   5.582   1.163   4.881  1.3791 -1.8820  1.1954
  717THF    H1112319   5.473   1.018   4.840 -0.3774 -1.2895  1.5991
  717THF    H1212320   5.553   0.931   5.036 -1.8743 -0.4960  0.8196
  717THF    H1312321   5.585   1.097   5.099 -0.4501  0.0437  0.9569
  718THF     O112322   1.547   2.522   3.389  0.4801  0.7826 -0.7614
  718THF     C212323   1.689   2.517   3.372 -0.0203 -0.0014 -0.0519
  718THF     C312324   1.494   2.644   3.326  0.5390  0.4208  0.6532
  718THF     H412325   1.723   2.414   3.375  0.5523  0.1971  0.4680
  718THF     H512326   1.738   2.563   3.458 -2.8116 -0.0394  1.6814
  718THF     H612327   1.389   2.631   3.300  0.4534  0.2884  1.0494
  718THF     H712328   1.502   2.720   3.403 -1.4072 -0.0897  1.4062
  718THF     C812329   1.588   2.674   3.212  0.0855 -0.2444  0.1202
  718THF     C912330   1.719   2.605   3.249 -0.4098 -0.2487 -0.2796
  718THF    H1012331   1.600   2.779   3.188 -1.1685 -0.4674 -1.6939
  718THF    H1112332   1.557   2.628   3.118 -2.0857  0.6167  0.3561
  718THF    H1212333   1.750   2.547   3.162  0.5698  1.3294 -1.0245
  718THF    H1312334   1.789   2.687   3.265 -0.0579 -0.5425 -0.3054
  719THF     O112335   2.603   3.699   4.028  0.3168 -0.2903  0.5526
  719THF     C212336   2.665   3.679   4.153  0.3945  0.3364  0.4702
  719THF     C312337   2.500   3.606   4.010 -0.1448  0.3312  0.1889
  719THF     H412338   2.633   3.755   4.224  1.1392 -0.0705  1.2785
  719THF     H512339   2.774   3.677   4.156  0.3851 -0.4804  0.4698
  719THF     H612340   2.416   3.648   4.066 -1.5300  2.0723 -2.9507
  719THF     H712341   2.473   3.591   3.906 -2.7746 -2.1463  1.1015
  719THF     C812342   2.560   3.485   4.063 -0.7570  0.2469  0.3209
  719THF     C912343   2.625   3.533   4.194  0.4242  0.1166  0.3706
  719THF    H1012344   2.626   3.446   3.986 -1.2549  1.9367 -1.0257
  719THF    H1112345   2.478   3.415   4.082  1.6246 -2.8320 -0.0276
  719THF    H1212346   2.552   3.533   4.275 -1.6217  1.5969 -1.3642
  719THF    H1312347   2.710   3.465   4.204  0.1016 -0.5000 -0.8977
  720THF     O112348   0.211   5.177   4.533  0.0573 -0.0203 -0.6826
  720THF     C212349   0.344   5.167   4.579 -0.6828 -0.0156  0.6459
  720THF     C312350   0.196   5.082   4.424 -0.2973 -0.5695  0.2509
  720THF     H412351   0.369   5.199   4.681  1.6107  0.4753 -0.0174
  720THF     H512352   0.414   5.225   4.518 -0.1916 -0.2061  1.0224
  720THF     H612353   0.093   5.062   4.396 -0.3504  0.8783 -0.6880
  720THF     H712354   0.247   5.128   4.340 -1.1319 -0.8264 -0.4026
  720THF     C812355   0.260   4.959   4.486  0.3703 -1.0892  0.5591
  720THF     C912356   0.381   5.017   4.553 -0.3223 -0.4876 -0.0704
  720THF    H1012357   0.278   4.888   4.406  1.2466  0.7091 -0.9257
  720THF    H1112358   0.184   4.916   4.551 -0.9363 -0.3980 -0.4687
  720THF    H1212359   0.421   4.969   4.642 -0.1605  2.3331  1.5026
  720THF    H1312360   0.470   5.026   4.490  0.2551 -0.7159  0.6985
  721THF     O112361   3.291   2.031   2.968 -0.0716  0.4925  0.1424
  721THF     C212362   3.345   1.951   3.074 -0.1409 -0.5348  0.1765
  721THF     C312363   3.165   2.080   3.003  0.3461  0.1916  0.3113
  721THF     H412364   3.379   2.026   3.146  1.5244 -0.2170 -0.8894
  721THF     H512365   3.431   1.890   3.048  0.5993  0.9989 -1.1512
  721THF     H612366   3.156   2.186   3.024 -1.4315 -0.2931  2.3441
  721THF     H712367   3.114   2.066   2.907 -2.1312  1.5013  1.3566
  721THF     C812368   3.115   1.997   3.117  0.0063  1.5243 -0.0900
  721THF     C912369   3.217   1.883   3.118 -0.7012 -0.1136  0.1630
  721THF    H1012370   3.015   1.959   3.097  0.6245  0.4155 -1.2372
  721THF    H1112371   3.120   2.045   3.215 -0.0655  1.1169  0.1122
  721THF    H1212372   3.213   1.818   3.205  1.2178 -0.2381  0.2111
  721THF    H1312373   3.195   1.819   3.032  3.0692 -1.7018  0.1792
  722THF     O112374   2.568   0.872   2.704 -0.7577 -0.3364 -0.0098
  722THF     C212375   2.550   1.009   2.717 -0.4905 -0.9428 -0.2429
  722THF     C312376   2.461   0.824   2.620 -0.0406  0.2387  0.4496
  722THF     H412377   2.649   1.050   2.736 -0.9427  0.7884 -1.4578
  722THF     H512378   2.495   1.036   2.807  0.7491 -0.5427  0.4185
  722THF     H612379   2.491   0.731   2.572 -0.1932 -0.1911  1.1831
  722THF     H712380   2.376   0.802   2.684  1.9011 -0.6200  2.9056
  722THF     C812381   2.434   0.935   2.527  0.1812  0.3163  0.0589
  722THF     C912382   2.483   1.061   2.596  0.1530  0.5452 -0.0573
  722THF    H1012383   2.327   0.940   2.507  0.3262  0.7203 -0.6311
  722THF    H1112384   2.475   0.919   2.428 -1.3096 -2.6325 -0.1892
  722THF    H1212385   2.540   1.125   2.529  0.8869 -0.0662 -0.0373
  722THF    H1312386   2.398   1.120   2.630  1.3965  3.5748 -1.8740
  723THF     O112387   4.978   1.113   3.320 -0.0380 -0.2642 -0.4037
  723THF     C212388   5.002   1.109   3.467  0.2863 -0.1244 -0.0825
  723THF     C312389   4.951   0.972   3.287  0.0967 -0.6844 -0.0368
  723THF     H412390   4.900   1.095   3.503 -0.1242 -2.5882 -1.9684
  723THF     H512391   5.048   1.198   3.510 -0.5884  0.6238 -0.6482
  723THF     H612392   4.866   0.936   3.345 -0.3556  0.3796 -0.0122
  723THF     H712393   4.953   0.950   3.180 -0.1809 -1.0990  0.0405
  723THF     C812394   5.075   0.910   3.350 -0.6127  0.1807 -0.3804
  723THF     C912395   5.086   0.982   3.485 -0.1202  0.1490  0.5434
  723THF    H1012396   5.154   0.919   3.275  1.8535 -1.8570  1.7484
  723THF    H1112397   5.068   0.802   3.366  0.0485 -0.0541 -1.5146
  723THF    H1212398   5.046   0.910   3.555 -1.7333 -0.9113 -1.3602
  723THF    H1312399   5.191   1.004   3.505 -0.4296  0.9093  1.3935
  724THF     O112400   2.874   1.957   5.387 -0.6493  0.0023  0.2358
  724THF     C212401   2.790   1.845   5.401 -0.2496 -0.1292 -0.6125
  724THF     C312402   3.008   1.912   5.392  0.0021  0.1868 -0.2247
  724THF     H412403   2.698   1.871   5.348 -1.0480 -2.3675 -0.4626
  724THF     H512404   2.767   1.815   5.503  1.2126 -0.9499 -0.4864
  724THF     H612405   3.088   1.979   5.360  1.5428 -1.3779  0.2173
  724THF     H712406   3.027   1.888   5.496 -1.8795  0.8334  0.3120
  724THF     C812407   3.010   1.779   5.314 -0.3838 -0.8247 -0.2129
  724THF     C912408   2.861   1.735   5.322 -0.5063  0.4658  0.4063
  724THF    H1012409   3.083   1.711   5.357 -0.7844 -1.5131 -0.6092
  724THF    H1112410   3.041   1.784   5.210  1.5985 -2.5085  0.2402
  724THF    H1212411   2.832   1.719   5.219  1.6812  0.1947 -0.2238
  724THF    H1312412   2.861   1.635   5.366 -2.9877  0.5450  0.7016
  725THF     O112413   1.720   4.020   1.282  0.2050  0.0458  0.0575
  725THF     C212414   1.651   4.032   1.159  0.0466 -0.6497  0.1100
  725THF     C312415   1.857   3.997   1.251  0.1523 -0.1921 -0.2038
  725THF     H412416   1.672   4.137   1.134 -2.9313  0.4969  1.9043
  725THF     H512417   1.542   4.033   1.159 -0.1160  3.4952  1.2781
  725THF     H612418   1.908   4.090   1.226  1.0999  0.0042  2.1591
  725THF     H712419   1.909   3.954   1.336  0.7093  1.0312  0.0983
  725THF     C812420   1.858   3.911   1.129 -0.1505 -0.5459  0.0310
  725THF     C912421   1.722   3.931   1.069 -0.8006  0.0312  0.3220
  725THF    H1012422   1.869   3.805   1.151 -1.5774 -0.7555 -0.1457
  725THF    H1112423   1.938   3.944   1.062  0.1113 -3.5826 -1.3177
  725THF    H1212424   1.740   3.951   0.963 -0.8501  0.7831  0.4499
  725THF    H1312425   1.666   3.837   1.070  2.1881 -1.8642  0.7294
  726THF     O112426   0.059   1.578   4.244  0.7216 -0.0520  0.6672
  726THF     C212427   0.003   1.465   4.168 -0.2315  0.4851 -0.7171
  726THF     C312428   0.195   1.583   4.205 -0.3840  0.1548  0.0380
  726THF     H412429  -0.105   1.458   4.162 -0.4660  2.1911  0.7973
  726THF     H512430   0.030   1.374   4.222 -1.4571  0.7442  0.3662
  726THF     H612431   0.238   1.681   4.225  0.6707 -0.6930  2.3158
  726THF     H712432   0.235   1.511   4.277  0.4986  1.2598  0.6852
  726THF     C812433   0.220   1.519   4.069  0.6550 -0.3554  0.0454
  726THF     C912434   0.078   1.481   4.038  0.9578  0.4904  0.0082
  726THF    H1012435   0.291   1.436   4.071  0.5394 -0.4412  1.4340
  726THF    H1112436   0.270   1.585   3.998 -0.9653 -1.1190 -1.9154
  726THF    H1212437   0.032   1.552   3.970  2.1966 -0.9839 -2.4822
  726THF    H1312438   0.081   1.386   3.985  1.2953  0.2549  0.4391
  727THF     O112439   2.813   0.772   0.018 -0.3061 -0.2341 -0.0485
  727THF     C212440   2.773   0.649   0.080  0.7960 -0.1320  0.0939
  727THF     C312441   2.712   0.840  -0.049 -0.3437 -0.2649  0.6789
  727THF     H412442   2.812   0.628   0.179  0.9083 -2.9328 -0.4740
  727THF     H512443   2.800   0.559   0.025  0.8750 -1.3600  2.0700
  727THF     H612444   2.682   0.924   0.015  0.8270  1.1795 -0.5997
  727THF     H712445   2.748   0.885  -0.141  0.2022 -0.5815  0.7400
  727THF     C812446   2.602   0.746  -0.058 -0.5720 -0.0463 -0.4313
  727THF     C912447   2.613   0.674   0.073  0.3123 -0.1016  0.3156
  727THF    H1012448   2.616   0.668  -0.134  0.0932  1.0806 -1.4975
  727THF    H1112449   2.507   0.799  -0.062  0.0505  1.3537  1.6986
  727THF    H1212450   2.575   0.741   0.151 -0.1373 -0.9299  0.8278
  727THF    H1312451   2.563   0.577   0.079 -0.6594  0.4077  0.8130
  728THF     O112452   3.124   2.682   2.007  0.1806  0.3472  0.7666
  728THF     C212453   3.135   2.649   1.871 -0.3533  0.0316 -0.2026
  728THF     C312454   3.020   2.608   2.075 -0.0254  0.2074 -0.7918
  728THF     H412455   3.190   2.557   1.853 -1.4191 -0.5029 -0.8377
  728THF     H512456   3.172   2.726   1.803  2.3306 -0.0121  1.0842
  728THF     H612457   3.075   2.538   2.138 -1.1701  0.5969  0.7171
  728THF     H712458   2.954   2.672   2.135 -0.8811 -0.5735 -0.8839
  728THF     C812459   2.945   2.534   1.963 -0.2208 -0.0744 -0.3628
  728THF     C912460   2.992   2.610   1.838 -0.3980  0.3362 -0.0575
  728THF    H1012461   2.838   2.530   1.982 -0.2068 -0.8785 -0.3955
  728THF    H1112462   2.964   2.426   1.963 -1.2050 -0.2556 -0.6069
  728THF    H1212463   2.986   2.543   1.753 -1.1493 -1.1557  1.1079
  728THF    H1312464   2.935   2.698   1.813 -1.5396 -0.4462 -0.2784
  729THF     O112465   1.650   5.408   4.976 -0.3093  0.8064  0.1614
  729THF     C212466   1.524   5.363   5.028  0.0068  0.0572 -0.1311
  729THF     C312467   1.659   5.549   4.992 -0.1699  0.6048  0.9009
  729THF     H412468   1.540   5.331   5.131  0.6421 -0.9863 -0.5300
  729THF     H512469   1.484   5.273   4.981 -2.3323  0.9130  0.0773
  729THF     H612470   1.684   5.578   5.094  1.5934  4.1021 -0.3195
  729THF     H712471   1.733   5.601   4.929 -0.3452 -0.4478 -0.2122
  729THF     C812472   1.523   5.596   4.966 -0.2879  0.7384  0.7189
  729THF     C912473   1.438   5.484   5.024 -0.1068 -1.0184  0.2470
  729THF    H1012474   1.519   5.586   4.858  3.0246 -1.4497  0.6782
  729THF    H1112475   1.491   5.695   5.000 -0.0570  1.3006 -0.6412
  729THF    H1212476   1.397   5.517   5.120  1.2587  0.6783  0.2857
  729THF    H1312477   1.352   5.475   4.958  1.0050  1.2357 -1.6231
  730THF     O112478   3.504   1.259   5.092 -0.4615  0.2883  0.2836
  730THF     C212479   3.602   1.352   5.043  0.5168 -0.0572  0.1931
  730THF     C312480   3.436   1.313   5.206  0.1879 -0.3738 -0.0076
  730THF     H412481   3.622   1.334   4.937  2.6634 -3.7098  1.0563
  730THF     H512482   3.700   1.337   5.089  2.1783  0.6331 -2.8512
  730THF     H612483   3.343   1.259   5.225  0.2433 -0.2196  0.7257
  730THF     H712484   3.493   1.296   5.297  2.9619 -0.5640 -1.6598
  730THF     C812485   3.413   1.460   5.165 -0.3045  0.3327  0.8292
  730THF     C912486   3.541   1.489   5.077  0.7963 -0.4766 -0.7415
  730THF    H1012487   3.412   1.535   5.244 -2.3838  1.0096  0.2101
  730THF    H1112488   3.320   1.463   5.110  0.2879  0.3719 -0.1971
  730THF    H1212489   3.512   1.537   4.983  1.5045  0.9972 -0.2242
  730THF    H1312490   3.603   1.555   5.137  1.7902 -1.3094 -0.8045
  731THF     O112491   5.404   4.656   3.390  0.0159 -0.1237 -0.0348
  731THF     C212492   5.491   4.571   3.460  0.0687 -0.3541  0.2464
  731THF     C312493   5.311   4.732   3.468 -0.2312 -0.6755  0.6504
  731THF     H412494   5.585   4.622   3.480 -0.5165  1.2620 -0.8710
  731THF     H512495   5.510   4.473   3.416  2.0439  0.1377 -0.1209
  731THF     H612496   5.318   4.839   3.446  2.5132 -0.8906  0.0914
  731THF     H712497   5.207   4.702   3.456 -0.1668 -0.4152 -0.7981
  731THF     C812498   5.347   4.702   3.607 -0.0502 -0.7443  0.1386
  731THF     C912499   5.418   4.564   3.587  0.3067  0.0633  0.1092
  731THF    H1012500   5.259   4.713   3.671  0.5216  1.5009  0.6060
  731THF    H1112501   5.426   4.770   3.640 -0.1829 -0.1289 -0.7910
  731THF    H1212502   5.477   4.554   3.678  2.6259 -0.4668 -1.3905
  731THF    H1312503   5.341   4.487   3.580 -1.2284  1.7238 -3.5257
  732THF     O112504   1.580   3.493   2.654 -0.0171 -0.0965 -0.2997
  732THF     C212505   1.644   3.611   2.694  0.3818 -0.9747 -0.0647
  732THF     C312506   1.630   3.461   2.528  0.1886  0.6995  0.0399
  732THF     H412507   1.638   3.616   2.803 -0.6059  2.7486 -0.1272
  732THF     H512508   1.595   3.696   2.646  0.8524  0.2108  1.4568
  732THF     H612509   1.602   3.361   2.494 -1.7439  1.9718 -2.4732
  732THF     H712510   1.593   3.528   2.451 -0.3942  0.7050  0.3164
  732THF     C812511   1.775   3.486   2.547  0.2385  0.2600 -0.2099
  732THF     C912512   1.784   3.593   2.645 -0.8572  0.0460 -0.1730
  732THF    H1012513   1.828   3.512   2.455 -0.5464 -1.1397 -1.0953
  732THF    H1112514   1.808   3.390   2.587 -1.3956 -1.0785 -1.8715
  732THF    H1212515   1.850   3.564   2.726 -0.2030  0.2059 -0.6433
  732THF    H1312516   1.817   3.685   2.597 -0.9428 -0.3650 -1.0409
  733THF     O112517   0.488   3.818   3.986  0.3457  0.2760 -0.1283
  733THF     C212518   0.493   3.945   4.049 -0.3151 -0.4295 -0.0864
  733THF     C312519   0.528   3.850   3.848 -0.5984 -0.2414  0.0737
  733THF     H412520   0.483   3.937   4.157  2.0960  1.5287  0.3778
  733THF     H512521   0.420   4.011   4.002  1.2171  0.9579 -0.6352
  733THF     H612522   0.539   3.766   3.779 -1.6988 -1.4628  1.3309
  733THF     H712523   0.453   3.917   3.806  1.9733  3.1345  0.3638
  733THF     C812524   0.661   3.920   3.874  0.1274  0.2211  0.5651
  733THF     C912525   0.631   3.986   4.004 -0.6575 -0.0193  0.0063
  733THF    H1012526   0.693   3.992   3.799  1.0548 -1.7256 -0.9988
  733THF    H1112527   0.735   3.841   3.885 -0.0575 -0.0580 -0.1318
  733THF    H1212528   0.703   3.955   4.079 -2.1043 -2.1365  0.6014
  733THF    H1312529   0.643   4.094   3.997  0.1784  0.0058  1.4149
  734THF     O112530   3.580   3.786   1.041 -0.4273 -0.2125 -0.0680
  734THF     C212531   3.525   3.815   0.910  0.9921 -0.0117  0.2057
  734THF     C312532   3.487   3.697   1.112  0.0792 -1.2360 -0.2449
  734THF     H412533   3.551   3.742   0.833 -1.0341 -0.4235 -0.1539
  734THF     H512534   3.538   3.917   0.873  0.9243 -0.7467 -2.0311
  734THF     H612535   3.532   3.605   1.150  1.8333 -0.0419  0.7273
  734THF     H712536   3.468   3.753   1.203 -1.1765  0.9907 -1.7819
  734THF     C812537   3.359   3.676   1.019 -0.1165  0.2213  0.4165
  734THF     C912538   3.376   3.801   0.927  0.2419 -0.1266 -0.3598
  734THF    H1012539   3.262   3.670   1.070 -1.5539  2.7087 -1.7520
  734THF    H1112540   3.378   3.580   0.973 -1.1079 -0.9797  2.3626
  734THF    H1212541   3.315   3.804   0.837  1.9628  1.4742 -1.5484
  734THF    H1312542   3.342   3.890   0.982  0.4776 -0.4548  0.3303
  735THF     O112543   3.229   1.197   2.611  0.5310  0.5298  0.0821
  735THF     C212544   3.256   1.056   2.638  0.6508 -0.3106  0.7581
  735THF     C312545   3.174   1.197   2.474  0.0049 -0.2535 -0.0725
  735THF     H412546   3.241   1.054   2.746 -0.7787 -0.6229  0.5769
  735THF     H512547   3.356   1.027   2.607  1.3820  2.3893  0.3658
  735THF     H612548   3.119   1.290   2.457  0.7312  0.6151  2.0616
  735THF     H712549   3.264   1.180   2.414 -0.1781  1.1036 -0.7749
  735THF     C812550   3.076   1.081   2.487  0.7746  0.7507 -0.5221
  735THF     C912551   3.145   0.977   2.582  0.1435 -0.0489  0.7463
  735THF    H1012552   3.050   1.030   2.394 -0.0797  2.9350 -1.5604
  735THF    H1112553   2.979   1.114   2.523  0.8791  1.8754 -1.1939
  735THF    H1212554   3.080   0.954   2.667  0.2302 -0.2466  0.7587
  735THF    H1312555   3.173   0.886   2.528  2.9578  2.7650 -3.0786
  736THF     O112556   0.478   4.275   2.396  0.4250 -0.0090  0.2260
  736THF     C212557   0.391   4.341   2.477 -0.0700 -0.0200  0.2202
  736THF     C312558   0.577   4.371   2.352  0.4514  0.7747 -0.2113
  736THF     H412559   0.319   4.289   2.540 -0.4556  1.4945  1.0794
  736THF     H512560   0.325   4.412   2.427 -0.2284  0.4127  1.0376
  736THF     H612561   0.675   4.329   2.331  1.4957  1.5171  2.7293
  736THF     H712562   0.536   4.428   2.268  0.5228  1.1879  0.0353
  736THF     C812563   0.612   4.445   2.480  0.4684 -0.7400 -0.1216
  736THF     C912564   0.493   4.410   2.569  0.8342 -0.7799 -0.1976
  736THF    H1012565   0.632   4.551   2.465  2.0105 -0.8130  1.1772
  736THF    H1112566   0.696   4.400   2.532 -0.7867 -1.2760  1.5322
  736THF    H1212567   0.510   4.346   2.655  0.9033  0.3193  0.6295
  736THF    H1312568   0.459   4.505   2.610  4.4989 -0.2975  2.1857
  737THF     O112569   2.446   4.685   0.186 -0.0799 -0.2281 -0.0709
  737THF     C212570   2.485   4.804   0.256 -0.0615 -0.3238 -0.2851
  737THF     C312571   2.472   4.709   0.051 -0.6353  0.7863 -0.9669
  737THF     H412572   2.592   4.821   0.248 -0.1405  0.1972 -0.2514
  737THF     H512573   2.439   4.799   0.354 -0.4750  2.8277 -0.2093
  737THF     H612574   2.574   4.690   0.018 -0.6856 -3.5740  0.7748
  737THF     H712575   2.415   4.643  -0.015  0.2453 -0.6116 -0.3805
  737THF     C812576   2.438   4.850   0.027 -0.3650  0.2136  0.0765
  737THF     C912577   2.423   4.916   0.167  0.7582  1.0104  1.4105
  737THF    H1012578   2.348   4.842  -0.035  1.0169 -0.5805 -1.9381
  737THF    H1112579   2.517   4.904  -0.026  0.3956  0.3617  1.3204
  737THF    H1212580   2.451   5.021   0.176  0.9536  1.4176 -2.4996
  737THF    H1312581   2.316   4.913   0.191  0.2392 -3.1185 -0.5419
  738THF     O112582   4.298   2.831   2.553 -1.0838 -0.2563 -0.0588
  738THF     C212583   4.300   2.828   2.410 -0.0987  0.0294  0.2499
  738THF     C312584   4.288   2.972   2.585  0.3081 -0.3962 -0.2435
  738THF     H412585   4.195   2.819   2.384 -0.8672  0.4601  2.8939
  738THF     H512586   4.362   2.742   2.382 -1.4180 -0.9854  0.3723
  738THF     H612587   4.183   3.003   2.585  0.9429  1.9954  1.1503
  738THF     H712588   4.320   2.976   2.689  0.4583 -0.3913 -0.2903
  738THF     C812589   4.383   3.040   2.486 -0.5702  0.4354 -0.0957
  738THF     C912590   4.351   2.962   2.359 -0.2313  0.4953  0.6198
  738THF    H1012591   4.482   3.011   2.521 -0.7875  0.7825  0.8366
  738THF    H1112592   4.368   3.147   2.474 -0.9984  0.2893 -0.9626
  738THF    H1212593   4.271   3.015   2.306  0.4004  0.1687 -0.7045
  738THF    H1312594   4.436   2.954   2.291 -2.6957  0.5276 -2.7204
  739THF     O112595   1.352   4.059   4.841  0.0997 -0.9373  0.0584
  739THF     C212596   1.461   4.077   4.935 -0.1219  0.1205  0.4202
  739THF     C312597   1.276   3.950   4.891 -0.2971 -0.1671  0.2225
  739THF     H412598   1.448   4.173   4.985 -0.4798 -0.3158  1.1788
  739THF     H512599   1.557   4.076   4.883 -0.0702 -1.2675  0.5199
  739THF     H612600   1.172   3.975   4.869 -0.1926  0.4728  0.4269
  739THF     H712601   1.299   3.865   4.827  0.4305  0.0834  0.1442
  739THF     C812602   1.309   3.930   5.038 -0.0429 -0.3632  0.2536
  739THF     C912603   1.457   3.963   5.036  0.1616 -0.2028 -0.3914
  739THF    H1012604   1.291   3.829   5.075  0.4029  0.0120  1.5496
  739THF    H1112605   1.256   4.001   5.102 -1.4740 -0.6032 -0.6075
  739THF    H1212606   1.496   3.994   5.133 -0.7253 -2.0757  0.6299
  739THF    H1312607   1.510   3.880   4.988  0.0367  0.9925 -2.7453
  740THF     O112608   4.214   3.604   5.412  0.3301 -0.7043 -0.3002
  740THF     C212609   4.130   3.491   5.403  0.1766 -0.3737 -0.0622
  740THF     C312610   4.214   3.657   5.543  0.0491  0.6986  0.5815
  740THF     H412611   4.175   3.397   5.372  1.5140  0.2100  0.0520
  740THF     H512612   4.073   3.522   5.316 -1.2677 -2.6220  0.0170
  740THF     H612613   4.275   3.596   5.609 -3.1242 -3.0401  0.4217
  740THF     H712614   4.251   3.759   5.534  1.6030  0.1546  0.3590
  740THF     C812615   4.070   3.626   5.588 -0.9902  0.3140 -0.4798
  740THF     C912616   4.037   3.495   5.526  0.0850 -0.9981  0.2029
  740THF    H1012617   4.006   3.700   5.539 -0.3363  1.8261  0.8318
  740THF    H1112618   4.041   3.629   5.694  1.0285  1.3528  0.0801
  740THF    H1212619   4.040   3.408   5.593 -2.4088 -1.6437 -0.3942
  740THF    H1312620   3.930   3.494   5.503  0.0844  1.1295 -0.0530
  741THF     O112621   0.903   4.155   1.079 -0.5009  0.4347 -0.0259
  741THF     C212622   0.854   4.256   1.166  0.2007  0.4407  0.5914
  741THF     C312623   0.820   4.151   0.966 -0.3403 -0.6846  0.3019
  741THF     H412624   0.923   4.270   1.249  0.2928 -1.8821  0.9743
  741THF     H512625   0.776   4.205   1.225  1.3921 -0.9040  1.0716
  741THF     H612626   0.869   4.105   0.880  0.4304  0.3346  0.1733
  741THF     H712627   0.727   4.099   0.986 -0.8132 -0.2886 -0.8196
  741THF     C812628   0.794   4.291   0.934 -0.3782  0.2562  0.0269
  741THF     C912629   0.803   4.365   1.071  0.3196 -0.3854  0.0893
  741THF    H1012630   0.696   4.304   0.887  0.0189 -2.2409 -1.6888
  741THF    H1112631   0.880   4.323   0.876  0.4673  0.7940  1.5242
  741THF    H1212632   0.877   4.445   1.065  1.3309 -1.3752 -1.3784
  741THF    H1312633   0.710   4.409   1.106  0.4057  0.5646 -0.8202
  742THF     O112634   3.890   1.074   0.665  0.3069  0.0522  0.2464
  742THF     C212635   3.849   1.209   0.675  0.1933 -0.2087 -0.8945
  742THF     C312636   3.977   1.049   0.778  0.3588 -0.2617  0.0492
  742THF     H412637   3.749   1.215   0.630 -1.1417  1.6641  2.0061
  742THF     H512638   3.914   1.284   0.631 -0.2582  1.3720  1.0241
  742THF     H612639   4.005   0.946   0.799 -1.0545 -1.0217 -1.5508
  742THF     H712640   4.071   1.099   0.754 -0.3686  0.9577 -0.3204
  742THF     C812641   3.903   1.122   0.893  0.4499 -0.7376  0.5313
  742THF     C912642   3.829   1.237   0.827 -0.2349  0.0114 -0.0329
  742THF    H1012643   3.975   1.154   0.967  0.0964  0.1514  0.5157
  742THF    H1112644   3.833   1.051   0.938  0.1712 -1.8662 -1.5444
  742THF    H1212645   3.723   1.244   0.852  0.4417  0.8552  3.0146
  742THF    H1312646   3.865   1.337   0.851 -1.0699  0.3483 -0.1672
  743THF     O112647   0.112   0.490   3.060 -0.0130  0.7310  0.3157
  743THF     C212648   0.177   0.398   2.972 -0.0326 -0.1410  0.4737
  743THF     C312649   0.166   0.619   3.049  0.1419  0.3750  0.0642
  743THF     H412650   0.137   0.420   2.873 -0.7736  1.8559  1.1718
  743THF     H512651   0.145   0.295   2.988 -0.7766 -0.0493 -0.3317
  743THF     H612652   0.122   0.662   2.958 -0.1312 -2.6515 -1.3488
  743THF     H712653   0.148   0.679   3.138  2.3587  1.4348 -0.1387
  743THF     C812654   0.314   0.592   3.027  0.0636  0.3870 -0.6987
  743THF     C912655   0.320   0.439   3.001 -0.1368  0.0600  0.0360
  743THF    H1012656   0.369   0.606   3.120 -1.5303  0.7304  0.2409
  743THF    H1112657   0.361   0.656   2.953 -0.6174  0.5493 -0.9979
  743THF    H1212658   0.397   0.407   2.930 -0.0511 -0.3776  0.3185
  743THF    H1312659   0.355   0.395   3.095 -2.7729  1.6762  1.9226
  744THF     O112660   1.535   3.699   0.708 -0.4596  0.8499 -0.1817
  744THF     C212661   1.456   3.598   0.670 -0.2730  0.0495 -0.4269
  744THF     C312662   1.656   3.639   0.726 -0.2229 -0.2912 -0.5433
  744THF     H412663   1.357   3.630   0.639 -1.0883 -2.4866 -0.6206
  744THF     H512664   1.440   3.531   0.754 -3.7773 -0.1808 -1.1460
  744THF     H612665   1.742   3.704   0.740  0.1621 -0.8453 -0.2912
  744THF     H712666   1.652   3.571   0.811  0.9243 -2.3228 -2.0084
  744THF     C812667   1.679   3.541   0.618  0.5808 -0.2235 -0.1697
  744THF     C912668   1.534   3.539   0.554 -0.1449 -0.3216 -0.2868
  744THF    H1012669   1.710   3.445   0.658  0.1734 -1.5370 -2.7582
  744THF    H1112670   1.755   3.562   0.542 -0.3946 -1.3305 -1.5172
  744THF    H1212671   1.527   3.603   0.466 -0.9846  0.3269  0.2460
  744THF    H1312672   1.504   3.440   0.520 -1.0463 -0.3939  0.6734
  745THF     O112673   2.178   0.154   0.830  0.2659  0.4021  0.0946
  745THF     C212674   2.036   0.178   0.816  0.5834 -0.6934  0.0087
  745THF     C312675   2.238   0.171   0.707  0.9944  0.7045  0.0088
  745THF     H412676   2.021   0.285   0.800  1.6779 -0.6463 -0.7930
  745THF     H512677   1.979   0.139   0.901 -0.4500 -1.0605 -0.8275
  745THF     H612678   2.238   0.279   0.695 -0.7849  0.7485  0.0948
  745THF     H712679   2.337   0.127   0.695  0.5266 -0.0245 -1.3571
  745THF     C812680   2.139   0.104   0.614 -0.0048 -0.6360  0.8894
  745THF     C912681   2.007   0.096   0.687  0.6621 -0.2345 -0.3985
  745THF    H1012682   2.159   0.002   0.582  0.1852 -0.8152  1.5834
  745THF    H1112683   2.127   0.151   0.516 -0.0075 -0.1998  1.0984
  745THF    H1212684   1.918   0.136   0.638  0.3509 -0.0193  0.3290
  745THF    H1312685   1.977  -0.001   0.728  2.8589 -0.0139  1.9027
  746THF     O112686   3.656   2.781   0.093 -0.3533  0.2433  0.1029
  746THF     C212687   3.554   2.749   0.002 -0.2705  0.4797 -0.6581
  746THF     C312688   3.658   2.682   0.198 -0.8961 -0.1321  0.3017
  746THF     H412689   3.598   2.686  -0.075  1.6924  0.3502  0.4974
  746THF     H512690   3.523   2.839  -0.051 -0.5001  1.2797  0.7692
  746THF     H612691   3.745   2.617   0.187 -0.2315  0.6024  1.1067
  746THF     H712692   3.678   2.727   0.295  0.6177 -1.1272  0.4870
  746THF     C812693   3.530   2.603   0.188 -0.3936 -0.0386 -0.0018
  746THF     C912694   3.444   2.685   0.090 -0.2227 -0.0496 -0.1928
  746THF    H1012695   3.478   2.584   0.282 -2.0168 -0.7761 -1.0083
  746THF    H1112696   3.552   2.500   0.161 -0.0988 -0.5909  2.1686
  746THF    H1212697   3.381   2.614   0.036 -0.2401 -1.6429  1.8338
  746THF    H1312698   3.372   2.755   0.133 -0.0961  0.6254 -1.0546
  747THF     O112699   2.857   4.857   1.402  0.0112 -0.2052 -0.0849
  747THF     C212700   2.801   4.801   1.285  0.1783 -0.5811  0.2553
  747THF     C312701   2.900   4.749   1.477  0.6178  0.2578 -0.4693
  747THF     H412702   2.799   4.860   1.194 -0.5646 -1.8600 -0.5935
  747THF     H512703   2.697   4.769   1.291 -1.2801  3.3509 -0.9929
  747THF     H612704   2.964   4.792   1.554  1.5105  0.9876 -1.5789
  747THF     H712705   2.819   4.708   1.538  0.7255  0.1094 -0.4277
  747THF     C812706   2.967   4.657   1.374  0.4783 -0.0351  0.2226
  747THF     C912707   2.892   4.684   1.253 -0.4149 -0.8258 -0.3207
  747THF    H1012708   2.951   4.553   1.403  0.0779 -0.2455 -0.7198
  747THF    H1112709   3.073   4.678   1.363  0.2678  0.6992 -0.5889
  747THF    H1212710   2.954   4.702   1.166  0.7519  2.5579  1.0373
  747THF    H1312711   2.831   4.605   1.209 -2.1695 -0.3038  1.0329
  748THF     O112712   3.001   4.410   3.100  0.2381  0.0503 -0.3475
  748THF     C212713   3.099   4.348   3.004  0.3317 -0.3161  0.8075
  748THF     C312714   2.883   4.456   3.022 -0.4204 -0.2718 -0.0719
  748THF     H412715   3.181   4.290   3.045  0.8096 -1.1440 -1.2209
  748THF     H512716   3.148   4.424   2.942  1.8436 -0.9338  1.2007
  748THF     H612717   2.791   4.451   3.080 -1.7377 -0.0723 -2.0272
  748THF     H712718   2.903   4.553   2.977  3.2257 -2.0877 -2.9231
  748THF     C812719   2.873   4.358   2.905 -0.8129 -0.2591  0.0820
  748THF     C912720   3.001   4.271   2.917  0.0449  0.1955 -0.8966
  748THF    H1012721   2.874   4.411   2.810  1.1624 -3.7296 -2.0438
  748THF    H1112722   2.789   4.289   2.905 -1.9615  1.0918 -0.4629
  748THF    H1212723   2.982   4.179   2.973 -0.2451  0.1505 -1.0685
  748THF    H1312724   3.049   4.243   2.823 -2.2872 -2.9961 -1.3162
  749THF     O112725   4.851   2.157   3.625 -0.3395  0.1996 -0.0163
  749THF     C212726   4.983   2.119   3.591  0.0972  0.3113  0.0205
  749THF     C312727   4.768   2.117   3.515  0.0975 -0.2763 -0.0012
  749THF     H412728   5.054   2.114   3.673 -0.5857 -1.5433  0.5563
  749THF     H512729   5.025   2.181   3.512  0.3993  2.5460  1.8298
  749THF     H612730   4.662   2.101   3.531  0.3283 -2.1527 -0.1110
  749THF     H712731   4.774   2.184   3.428 -0.4807 -1.5066 -1.0217
  749THF     C812732   4.822   1.993   3.457 -0.1758  0.3139  0.3602
  749THF     C912733   4.953   1.981   3.530  0.3846 -0.7661  0.4102
  749THF    H1012734   4.840   1.998   3.349  0.5304 -1.7678  0.3480
  749THF    H1112735   4.744   1.921   3.481 -0.9593  0.9250 -0.2823
  749THF    H1212736   4.951   1.904   3.607 -0.2928 -0.6140  0.5521
  749THF    H1312737   5.028   1.947   3.459  0.0072 -1.3438  0.2715
  750THF     O112738   3.967   0.894   3.508 -0.2261  0.1669  1.0375
  750THF     C212739   3.989   0.917   3.649 -0.8553  0.3649 -0.1326
  750THF     C312740   3.951   0.764   3.480 -0.0489 -0.1339  0.2784
  750THF     H412741   3.889   0.917   3.694 -1.2294 -3.6895 -0.5157
  750THF     H512742   4.044   1.006   3.677  0.2566 -0.3975  0.1924
  750THF     H612743   3.847   0.737   3.495 -0.4687 -0.5661 -2.7382
  750THF     H712744   3.980   0.728   3.381 -0.7929 -3.7672  1.2720
  750THF     C812745   4.050   0.694   3.577 -0.2862 -0.0796  0.6844
  750THF     C912746   4.073   0.790   3.693  1.0845  0.0953  0.0238
  750THF    H1012747   4.144   0.690   3.522 -1.4654 -1.1688 -1.3715
  750THF    H1112748   4.031   0.595   3.619  0.1322 -0.0866  0.8599
  750THF    H1212749   4.039   0.758   3.792  1.0781  2.4352  0.8516
  750THF    H1312750   4.180   0.810   3.690  1.5896 -2.3311 -2.7322
  751THF     O112751   2.515   1.281   5.121  0.5090  0.4511 -0.5462
  751THF     C212752   2.511   1.266   5.265  0.4464  0.2686  0.2105
  751THF     C312753   2.480   1.419   5.098 -0.4851 -0.1275 -0.7508
  751THF     H412754   2.568   1.179   5.299  0.5566  0.9661  1.9196
  751THF     H512755   2.407   1.242   5.287  0.1844 -0.3761 -1.5407
  751THF     H612756   2.518   1.450   5.001  1.5117  0.0108  0.0333
  751THF     H712757   2.374   1.440   5.111 -0.2027 -0.3183  3.0898
  751THF     C812758   2.554   1.496   5.209  0.1865 -0.1486 -0.6124
  751THF     C912759   2.558   1.399   5.329 -0.5487  0.4721 -0.0982
  751THF    H1012760   2.493   1.583   5.233 -0.5944 -0.5979 -0.9320
  751THF    H1112761   2.650   1.535   5.176 -0.4248  2.0144 -0.0404
  751THF    H1212762   2.658   1.380   5.366 -0.5401 -2.3137 -1.3026
  751THF    H1312763   2.499   1.426   5.416 -0.8084 -0.4579  0.0164
  752THF     O112764   2.391   0.702   1.664  0.1384 -0.7857  0.1656
  752THF     C212765   2.313   0.808   1.605  0.3274 -0.1130 -0.6920
  752THF     C312766   2.491   0.754   1.751 -0.1231  0.1301 -0.1897
  752THF     H412767   2.221   0.771   1.561  1.3003 -3.6239 -0.1340
  752THF     H512768   2.370   0.865   1.532  1.0373  0.4730  0.3008
  752THF     H612769   2.519   0.683   1.829 -3.6321 -0.4306  0.7390
  752THF     H712770   2.570   0.795   1.688  0.0388 -0.8416 -0.6427
  752THF     C812771   2.416   0.876   1.813  0.3098 -0.2451 -0.7878
  752THF     C912772   2.294   0.905   1.722 -0.1615 -0.6468 -0.0193
  752THF    H1012773   2.483   0.962   1.816 -0.0594  0.0100  0.9619
  752THF    H1112774   2.391   0.850   1.916 -0.6010  2.6321 -0.1763
  752THF    H1212775   2.207   0.875   1.781  0.0154  0.0480  0.6206
  752THF    H1312776   2.287   1.011   1.698  1.3723 -0.1379  1.5746
  753THF     O112777   2.782   5.291   2.533 -0.3248  0.5799 -0.1915
  753THF     C212778   2.870   5.378   2.604 -0.3144 -0.0967  0.4387
  753THF     C312779   2.717   5.207   2.626 -0.0149  0.7087  0.5971
  753THF     H412780   2.806   5.465   2.609  2.2084  2.0574 -1.5444
  753THF     H512781   2.949   5.408   2.535  0.8135  0.4033  1.9057
  753THF     H612782   2.635   5.259   2.676 -0.6475  0.8735 -0.5980
  753THF     H712783   2.679   5.116   2.580 -0.5806  0.2807  1.8396
  753THF     C812784   2.825   5.182   2.734 -0.4390 -0.2541 -0.3063
  753THF     C912785   2.908   5.314   2.733  0.4439 -0.2161  0.0629
  753THF    H1012786   2.889   5.095   2.721 -2.4030 -1.8914  0.3578
  753THF    H1112787   2.769   5.159   2.825 -0.7980 -0.1762 -0.5048
  753THF    H1212788   2.876   5.377   2.817  0.7160 -0.2964  0.2289
  753THF    H1312789   3.013   5.289   2.740  0.7353  0.9413  0.1251
  754THF     O112790   2.107   1.383   1.290  0.2064 -0.2946 -0.0298
  754THF     C212791   2.195   1.289   1.233 -0.4749 -0.1148  0.2285
  754THF     C312792   2.028   1.452   1.195  0.3247 -0.8568  0.3738
  754THF     H412793   2.141   1.197   1.254  0.9912 -0.6565  1.9299
  754THF     H512794   2.296   1.288   1.275 -0.5374 -0.1766  0.3767
  754THF     H612795   1.941   1.392   1.168 -0.6609  0.2774  0.9475
  754THF     H712796   1.991   1.549   1.227  2.5403 -0.1834  1.0239
  754THF     C812797   2.128   1.452   1.078  0.5896  0.7694  0.2582
  754THF     C912798   2.203   1.313   1.087  0.1894  0.0730 -0.3948
  754THF    H1012799   2.190   1.538   1.103  0.0984  1.5777 -1.2074
  754THF    H1112800   2.096   1.473   0.976  0.5671  2.0595  0.5101
  754THF    H1212801   2.151   1.236   1.030 -0.5143  0.0310  0.2941
  754THF    H1312802   2.305   1.311   1.049  0.4785  0.0088  0.3846
  755THF     O112803   3.203   0.723   2.937 -0.2178 -0.3012  0.0233
  755THF     C212804   3.172   0.606   3.017 -0.2417 -0.0841  0.7734
  755THF     C312805   3.259   0.686   2.817  0.6884  1.1147  0.2932
  755THF     H412806   3.068   0.583   2.995 -0.6586  1.1306  1.3942
  755THF     H512807   3.171   0.628   3.124 -1.0128  0.6720  0.6207
  755THF     H612808   3.217   0.723   2.723 -1.1228 -0.3826  0.4615
  755THF     H712809   3.353   0.742   2.824  0.9045  1.4322 -3.2660
  755THF     C812810   3.278   0.536   2.822  0.1014 -0.3245 -0.0138
  755THF     C912811   3.269   0.497   2.967 -0.3646  0.9700 -0.1522
  755THF    H1012812   3.369   0.506   2.771  1.0015  1.2087  0.6351
  755THF    H1112813   3.200   0.499   2.755 -0.5197 -0.1214  0.5926
  755THF    H1212814   3.233   0.397   2.988  2.1560 -0.5625 -2.5862
  755THF    H1312815   3.360   0.521   3.022 -0.9004 -0.8557  1.6426
  756THF     O112816   4.552   3.817   5.144  0.7042  0.4074  0.3601
  756THF     C212817   4.498   3.766   5.269 -0.9591 -0.1936  0.2637
  756THF     C312818   4.562   3.956   5.152 -0.3444  0.2951 -0.0873
  756THF     H412819   4.524   3.661   5.282 -0.8137  0.0212  1.8173
  756THF     H512820   4.390   3.769   5.285 -1.4065  1.2520 -2.3924
  756THF     H612821   4.649   4.001   5.105 -1.5306  2.3344 -0.4584
  756THF     H712822   4.479   4.019   5.120 -0.7542 -0.1913  0.0088
  756THF     C812823   4.577   3.986   5.303 -0.2793  0.4360 -0.1286
  756THF     C912824   4.567   3.851   5.376 -0.0124  0.4126  0.1184
  756THF    H1012825   4.509   4.068   5.326 -0.6466  0.2314 -0.4704
  756THF    H1112826   4.674   4.026   5.331 -0.2477  0.4090 -0.1986
  756THF    H1212827   4.663   3.805   5.401 -0.9564 -0.2180  3.0250
  756THF    H1312828   4.497   3.859   5.460 -2.4175 -0.2969 -1.7235
  757THF     O112829   2.261   4.255   5.081  0.0119  0.6297 -0.3388
  757THF     C212830   2.373   4.280   4.995 -0.4030 -0.0049 -0.3957
  757THF     C312831   2.288   4.130   5.139  0.2279  0.1306 -0.2156
  757THF     H412832   2.455   4.301   5.064 -0.6266 -0.2857 -0.0469
  757THF     H512833   2.361   4.365   4.927 -1.9687  0.2495  0.1557
  757THF     H612834   2.360   4.143   5.219  0.2219  1.7518 -0.4467
  757THF     H712835   2.198   4.085   5.182 -0.1403  1.2320  0.2042
  757THF     C812836   2.328   4.050   5.017  0.0860  0.0717  0.0089
  757THF     C912837   2.389   4.143   4.923 -0.4885 -0.5045  0.1740
  757THF    H1012838   2.244   3.998   4.971 -0.6640  0.3987  0.9689
  757THF    H1112839   2.400   3.970   5.034 -0.9911 -0.9707 -0.2070
  757THF    H1212840   2.488   4.121   4.882 -1.4283 -0.8326 -2.0586
  757THF    H1312841   2.333   4.156   4.830 -2.1048 -0.0792  1.1784
  758THF     O112842   4.630   3.878   4.565  0.1395  0.5772  0.0904
  758THF     C212843   4.655   4.007   4.622  0.1351  0.0711  0.4971
  758THF     C312844   4.589   3.778   4.657 -0.4716 -0.1028  0.0075
  758THF     H412845   4.579   4.070   4.577  3.2761  3.2556 -0.8741
  758THF     H512846   4.746   4.050   4.580 -0.6696  2.4803  1.1093
  758THF     H612847   4.508   3.712   4.626 -0.6951 -0.4367  1.2504
  758THF     H712848   4.667   3.714   4.697 -1.3991 -1.6207 -0.5572
  758THF     C812849   4.551   3.863   4.780 -1.3174  0.3488  0.7129
  758THF     C912850   4.648   3.978   4.768  0.3628  0.9010  0.6967
  758THF    H1012851   4.563   3.804   4.871 -0.6055 -0.1318  0.3124
  758THF    H1112852   4.452   3.905   4.762 -1.2379 -0.2481 -1.3895
  758THF    H1212853   4.619   4.064   4.828  1.2592  0.5278  1.6881
  758THF    H1312854   4.743   3.939   4.805 -1.2296 -2.8573  1.3169
  759THF     O112855   4.925   0.616   0.910  0.5534 -0.2741  0.1679
  759THF     C212856   4.926   0.471   0.909 -0.0201  0.1726 -0.0904
  759THF     C312857   5.043   0.640   0.833 -0.1706  1.0401  0.1395
  759THF     H412858   4.900   0.426   0.813  1.4729 -0.0337 -0.4242
  759THF     H512859   4.858   0.433   0.985  2.3892 -1.6790  1.3116
  759THF     H612860   5.026   0.624   0.727  1.7669  3.4656 -0.6203
  759THF     H712861   5.072   0.745   0.829 -0.9685  1.3046  1.0000
  759THF     C812862   5.158   0.551   0.896  0.3661  0.7887 -0.0047
  759THF     C912863   5.075   0.440   0.951  0.4160  0.2014 -0.4360
  759THF    H1012864   5.216   0.597   0.976 -0.1686  1.5171 -0.0204
  759THF    H1112865   5.229   0.521   0.820 -0.6323 -0.2493 -0.5692
  759THF    H1212866   5.108   0.340   0.923  0.4970  0.2455 -0.4956
  759THF    H1312867   5.070   0.442   1.060 -2.3405 -0.1817 -0.4678
  760THF     O112868   2.952   3.051   1.383  0.3377 -0.0949 -0.3199
  760THF     C212869   2.981   3.101   1.513 -0.4964  0.0386  0.0729
  760THF     C312870   3.001   2.919   1.376 -0.4306 -0.2808  0.2214
  760THF     H412871   2.947   3.201   1.539  1.8839  1.1996 -0.9167
  760THF     H512872   3.088   3.125   1.521 -0.6710  0.6960  0.5653
  760THF     H612873   2.957   2.865   1.292  0.7657  1.3998 -1.5477
  760THF     H712874   3.109   2.904   1.368 -0.7046 -2.4545 -0.1827
  760THF     C812875   2.948   2.866   1.510 -0.2599  0.5899 -0.2937
  760THF     C912876   2.936   2.988   1.609 -0.0717 -0.3951  0.0220
  760THF    H1012877   3.020   2.796   1.554 -1.0869 -1.1203 -1.5748
  760THF    H1112878   2.855   2.813   1.490  0.1717 -0.3815  0.2039
  760THF    H1212879   2.837   3.007   1.650  0.0032  0.6826 -0.2647
  760THF    H1312880   3.000   2.972   1.696 -0.1533 -0.7526  0.0205
  761THF     O112881   1.571   1.327   0.371  0.4671 -0.5034  0.1199
  761THF     C212882   1.479   1.437   0.373  0.1650 -0.1708  0.4251
  761THF     C312883   1.698   1.395   0.344  0.9453  0.0523  0.0816
  761THF     H412884   1.481   1.480   0.473 -0.7958  1.1413 -0.1057
  761THF     H512885   1.376   1.406   0.355 -0.1452  0.8679  0.3630
  761THF     H612886   1.726   1.460   0.427 -1.6818 -0.2870  1.3291
  761THF     H712887   1.776   1.321   0.323 -0.6399 -1.5622 -0.3173
  761THF     C812888   1.651   1.476   0.224 -0.6182  0.4460 -0.4605
  761THF     C912889   1.527   1.549   0.277 -0.7843  0.2376  0.4394
  761THF    H1012890   1.606   1.417   0.145 -1.1016 -0.8518  0.7325
  761THF    H1112891   1.728   1.534   0.172 -0.8898  0.7092 -0.5714
  761THF    H1212892   1.545   1.638   0.337 -1.3446 -0.1944  1.2759
  761THF    H1312893   1.457   1.571   0.196 -0.0394 -1.3523 -0.6752
  762THF     O112894   4.676   0.046   3.278  0.1105 -0.1042 -0.1933
  762THF     C212895   4.727   0.003   3.406  0.1605  0.0355 -0.1746
  762THF     C312896   4.568   0.138   3.298  0.0911 -0.5420 -0.2198
  762THF     H412897   4.797   0.070   3.456  1.1395 -1.4909  0.5888
  762THF     H512898   4.778  -0.094   3.404 -0.1063 -0.1172  0.3288
  762THF     H612899   4.605   0.234   3.334  0.1437 -0.8652  0.6064
  762THF     H712900   4.503   0.166   3.215 -3.6697  0.1942  2.7234
  762THF     C812901   4.493   0.066   3.398  0.4623 -0.0967  0.7445
  762THF     C912902   4.598  -0.007   3.496  0.6794 -0.4037  0.0832
  762THF    H1012903   4.432  -0.009   3.348  1.6370 -0.4569 -0.2031
  762THF    H1112904   4.425   0.130   3.453 -0.9530 -0.5568 -0.4091
  762THF    H1212905   4.614   0.045   3.590  0.5732  1.8595 -1.0792
  762THF    H1312906   4.579  -0.112   3.517 -0.7418  0.0210  1.0595
  763THF     O112907   2.778   2.725   2.738 -0.1887 -0.4737  0.0257
  763THF     C212908   2.895   2.657   2.724 -0.6281  0.0811 -0.6721
  763THF     C312909   2.774   2.840   2.663 -0.2732  0.2415  0.2546
  763THF     H412910   2.884   2.552   2.750 -1.1729  0.3230  0.1168
  763THF     H512911   2.974   2.702   2.784  0.1660 -1.4132 -0.5480
  763THF     H612912   2.674   2.870   2.632 -0.3514  1.5418  1.6370
  763THF     H712913   2.794   2.920   2.734 -0.5055 -0.2175  0.8457
  763THF     C812914   2.872   2.818   2.549  0.1915  0.2577 -0.0563
  763THF     C912915   2.920   2.675   2.569  0.3420 -0.0068 -0.7093
  763THF    H1012916   2.951   2.893   2.550  0.5015 -0.0405  2.1227
  763THF    H1112917   2.822   2.833   2.453 -0.2041 -0.2621  0.0634
  763THF    H1212918   2.860   2.602   2.514  2.1636 -2.2947  0.1919
  763THF    H1312919   3.026   2.669   2.545  0.0526 -1.6640 -1.7232
  764THF     O112920   1.878   2.249   0.254  0.0193 -0.1827  0.2541
  764THF     C212921   1.739   2.278   0.264  0.8410 -0.3084  0.7491
  764THF     C312922   1.917   2.196   0.378  0.0726 -0.2556 -0.1746
  764THF     H412923   1.680   2.217   0.196  0.2354  2.7136 -1.6669
  764THF     H512924   1.731   2.382   0.233  0.7219 -0.5357 -0.0204
  764THF     H612925   1.980   2.109   0.360 -1.0466 -1.3777  1.0781
  764THF     H712926   1.966   2.275   0.435  1.1282 -1.2371  0.3022
  764THF     C812927   1.793   2.158   0.451 -0.4765  0.1706  0.8535
  764THF     C912928   1.685   2.255   0.402 -0.4209 -0.0600 -0.0530
  764THF    H1012929   1.816   2.173   0.556  1.3062 -0.0749  0.5159
  764THF    H1112930   1.752   2.063   0.417 -0.7318  0.1008  1.3466
  764THF    H1212931   1.585   2.219   0.424 -0.5464  0.6810  0.6626
  764THF    H1312932   1.699   2.344   0.464 -0.1720 -0.9987  1.3052
  765THF     O112933   1.654   4.981   4.309  0.5308  0.3681 -0.1178
  765THF     C212934   1.646   4.863   4.226 -0.1086 -0.9144  0.1323
  765THF     C312935   1.566   4.964   4.423 -0.2925  0.4489  0.0306
  765THF     H412936   1.730   4.796   4.240  1.0972  0.5090 -0.0689
  765THF     H512937   1.650   4.901   4.124  2.0655 -0.6802  0.2698
  765THF     H612938   1.610   4.893   4.493 -1.1475  0.4032  0.5365
  765THF     H712939   1.534   5.057   4.469 -0.3481  0.3605  0.1708
  765THF     C812940   1.450   4.897   4.361  0.2105  0.0463  0.7490
  765THF     C912941   1.509   4.799   4.260  0.2463  0.1971 -0.2229
  765THF    H1012942   1.384   4.966   4.307  0.7182  0.5530  0.7622
  765THF    H1112943   1.401   4.845   4.443  1.3320 -0.1939  1.2933
  765THF    H1212944   1.522   4.699   4.301  2.4428  1.7801  3.4490
  765THF    H1312945   1.446   4.792   4.171 -1.8465 -3.1170  1.3138
  766THF     O112946   4.201   0.886   4.087 -0.0434 -0.0852  0.4876
  766THF     C212947   4.305   0.861   3.994  0.2115 -0.2391 -0.2514
  766THF     C312948   4.134   1.014   4.067  0.3969  0.0484 -0.2905
  766THF     H412949   4.276   0.784   3.923 -1.3374  0.7903 -0.7754
  766THF     H512950   4.398   0.837   4.046  0.8609 -0.7428 -1.6095
  766THF     H612951   4.052   1.008   3.996  1.4289  0.9798 -1.6154
  766THF     H712952   4.114   1.056   4.166 -0.0998 -1.1135  0.1277
  766THF     C812953   4.243   1.098   4.003  0.1498 -0.0711  0.5005
  766THF     C912954   4.319   0.994   3.916  0.3127 -0.2301  0.6715
  766THF    H1012955   4.309   1.155   4.068  0.6967 -0.3958  0.2396
  766THF    H1112956   4.200   1.171   3.933 -0.6999 -2.1927 -1.3216
  766THF    H1212957   4.260   0.982   3.826  1.5879 -0.5546 -0.1518
  766THF    H1312958   4.406   1.029   3.860 -0.0932  1.1996  0.8988
  767THF     O112959   3.781   1.512   0.642  0.3900 -0.1044 -0.0450
  767THF     C212960   3.816   1.648   0.639  0.3647  0.4572 -0.2675
  767THF     C312961   3.635   1.498   0.635 -0.3783 -0.0824  0.4984
  767THF     H412962   3.910   1.655   0.585 -0.6788  3.0312 -1.9835
  767THF     H512963   3.817   1.680   0.744  0.7983 -0.2793 -0.0443
  767THF     H612964   3.621   1.426   0.555 -0.4983  0.9376 -0.4119
  767THF     H712965   3.582   1.463   0.724 -1.3833 -0.9122 -0.4076
  767THF     C812966   3.584   1.643   0.622  0.0144 -0.1495 -0.2573
  767THF     C912967   3.703   1.717   0.564 -0.4437  0.0730  0.5261
  767THF    H1012968   3.549   1.680   0.718  3.0690 -0.0183  0.9066
  767THF    H1112969   3.501   1.639   0.551  1.4453 -0.6036 -1.9677
  767THF    H1212970   3.708   1.683   0.460  1.0434 -0.4487  0.7504
  767THF    H1312971   3.693   1.825   0.574  2.0981  0.2415  2.2577
  768THF     O112972   1.743   4.027   4.537 -1.0313 -0.4085 -0.3481
  768THF     C212973   1.849   3.950   4.491  0.1368 -0.3543  0.0074
  768THF     C312974   1.635   3.945   4.576  0.5520 -0.5915  0.3507
  768THF     H412975   1.945   4.002   4.500  0.7887 -1.5560  0.2741
  768THF     H512976   1.825   3.922   4.388 -0.6433 -2.4393  0.7122
  768THF     H612977   1.575   4.003   4.646 -1.6896  2.1052 -3.3929
  768THF     H712978   1.584   3.917   4.484  0.0251 -0.5165  0.6172
  768THF     C812979   1.696   3.823   4.635  0.4135 -0.2511  0.0028
  768THF     C912980   1.847   3.832   4.587 -0.6894 -0.2929  0.1566
  768THF    H1012981   1.644   3.732   4.606  1.5180  0.0530 -3.3061
  768THF    H1112982   1.688   3.837   4.743 -1.8772 -0.3647 -0.0968
  768THF    H1212983   1.915   3.872   4.663  0.7727 -1.5134 -0.4463
  768THF    H1312984   1.886   3.740   4.545 -1.4252  0.0833 -1.4272
  769THF     O112985   5.380   1.697   3.412  0.3419  0.6109  0.0852
  769THF     C212986   5.427   1.612   3.523 -0.0844 -0.2432 -0.3305
  769THF     C312987   5.404   1.833   3.446  0.2862  0.1500 -0.1104
  769THF     H412988   5.536   1.607   3.526 -0.0968 -0.3575  0.1264
  769THF     H512989   5.397   1.507   3.517  2.0491 -1.1925  2.7018
  769THF     H612990   5.507   1.866   3.434  0.1295  0.8373  0.4039
  769THF     H712991   5.344   1.896   3.381 -0.8734 -0.5785  0.2329
  769THF     C812992   5.369   1.836   3.595  0.1957  0.2177  0.2552
  769THF     C912993   5.380   1.690   3.647 -0.2779 -0.3648 -0.7065
  769THF    H1012994   5.268   1.873   3.609  0.2498 -0.1952  2.0159
  769THF    H1112995   5.431   1.910   3.646 -0.3827  1.4654 -0.7849
  769THF    H1212996   5.455   1.685   3.726  1.0502  0.7591 -1.8515
  769THF    H1312997   5.285   1.652   3.685  0.0226  0.1110  0.5719
  770THF     O112998   0.384   4.869   3.611  0.2861  0.1959  0.6042
  770THF     C212999   0.286   4.786   3.554  0.0274 -0.1709 -0.1492
  770THF     C313000   0.472   4.779   3.683 -0.2929  0.2800  0.4627
  770THF     H413001   0.243   4.842   3.471  1.7079  0.8609 -0.3769
  770THF     H513002   0.206   4.753   3.621 -2.1826 -0.6521 -2.8403
  770THF     H613003   0.570   4.826   3.692  0.0230 -0.1136 -0.6773
  770THF     H713004   0.437   4.765   3.785  0.4412 -0.1301  0.6702
  770THF     C813005   0.483   4.652   3.597 -0.2776 -0.3479 -0.6593
  770THF     C913006   0.367   4.665   3.497  0.0092 -0.2963 -0.2102
  770THF    H1013007   0.476   4.566   3.664 -0.9311  0.5244  0.4329
  770THF    H1113008   0.580   4.637   3.549 -0.5823 -2.9897 -0.5816
  770THF    H1213009   0.406   4.680   3.396 -1.0169  0.3820 -0.5130
  770THF    H1313010   0.304   4.577   3.501 -1.8512  1.0209  2.1000
  771THF     O113011   3.434   4.858   1.187 -0.4814 -0.3087  0.3957
  771THF     C213012   3.468   4.775   1.079 -0.3915  0.1016 -0.4715
  771THF     C313013   3.333   4.945   1.143 -0.1196 -0.2497  0.0776
  771THF     H413014   3.530   4.690   1.108 -1.1782 -0.9950 -1.8820
  771THF     H513015   3.532   4.825   1.007  1.5848  0.3876  1.3817
  771THF     H613016   3.294   5.000   1.228  1.3251 -1.4940  1.6103
  771THF     H713017   3.382   5.018   1.078  1.6757 -0.6210  0.9414
  771THF     C813018   3.240   4.846   1.066  0.3807  0.4663  0.4788
  771THF     C913019   3.332   4.734   1.019  0.2092  0.8277  0.5416
  771THF    H1013020   3.181   4.898   0.991 -0.5133  0.2844  1.0369
  771THF    H1113021   3.160   4.808   1.129 -2.1062  0.0875 -2.6430
  771THF    H1213022   3.294   4.638   1.054  0.8644 -0.9005 -2.9873
  771THF    H1313023   3.342   4.727   0.911 -3.0132 -0.9596  0.2291
  772THF     O113024   3.901   2.724   5.118  0.1733  0.0667 -0.3830
  772THF     C213025   3.865   2.795   5.000  0.3438  0.2637  0.0578
  772THF     C313026   3.840   2.791   5.238  0.3803  0.6214 -0.0012
  772THF     H413027   3.856   2.728   4.914  3.2434  0.2742 -0.3358
  772THF     H513028   3.944   2.866   4.978 -1.8576  2.7852 -0.2521
  772THF     H613029   3.831   2.717   5.318 -1.1981  2.5231  1.6952
  772THF     H713030   3.904   2.870   5.278  1.8735  0.0482 -1.1291
  772THF     C813031   3.708   2.839   5.178 -0.3462 -0.1198 -0.5557
  772THF     C913032   3.734   2.873   5.037  0.7326  0.0162  0.3650
  772THF    H1013033   3.667   2.922   5.236 -1.8103 -0.6611 -0.7794
  772THF    H1113034   3.633   2.760   5.182 -1.4258  0.8943 -0.0267
  772THF    H1213035   3.648   2.841   4.978 -1.3827  2.5862  1.7981
  772THF    H1313036   3.737   2.982   5.032  1.7208 -0.0407 -0.5730
  773THF     O113037   0.613   1.161   3.758  0.3642 -0.0415  0.0566
  773THF     C213038   0.600   1.032   3.697  0.4322  0.5800 -0.1652
  773THF     C313039   0.529   1.166   3.876  0.8655  0.2615 -0.0916
  773THF     H413040   0.687   0.997   3.641 -0.0223 -0.6198 -0.1388
  773THF     H513041   0.520   1.030   3.622  1.0137 -0.7754 -0.7720
  773THF     H613042   0.584   1.216   3.956  0.2171 -1.3376  1.4097
  773THF     H713043   0.437   1.221   3.856  0.6108 -0.8358 -2.3807
  773THF     C813044   0.479   1.024   3.903 -1.0775  0.0488  0.9096
  773THF     C913045   0.581   0.943   3.819 -0.0951 -0.0365 -0.5308
  773THF    H1013046   0.383   1.022   3.851  0.5314 -0.4947 -2.3128
  773THF    H1113047   0.472   1.005   4.010  1.6631  3.2138  1.8403
  773THF    H1213048   0.681   0.934   3.864  0.0706  1.0604 -0.6558
  773THF    H1313049   0.536   0.848   3.792 -0.6883 -0.0416  0.4239
  774THF     O113050   5.315   1.253   3.958 -0.5357  0.5189  0.6711
  774THF     C213051   5.348   1.203   3.827 -0.4168  0.2844  0.3251
  774THF     C313052   5.224   1.361   3.950  1.0112 -0.2151  0.0194
  774THF     H413053   5.375   1.098   3.826 -1.1588  0.0873  0.7429
  774THF     H513054   5.436   1.239   3.772 -1.9405 -0.3968 -2.7952
  774THF     H613055   5.184   1.373   4.051  0.3614  3.2220 -0.5266
  774THF     H713056   5.276   1.455   3.930  0.5670 -0.0908 -0.5883
  774THF     C813057   5.132   1.328   3.830  0.1313  0.0562 -0.8373
  774THF     C913058   5.228   1.242   3.740 -0.1352 -0.4024  0.1609
  774THF    H1013059   5.092   1.413   3.774 -1.2868  0.3755  0.6005
  774THF    H1113060   5.047   1.267   3.859  1.0444 -0.5326  0.7142
  774THF    H1213061   5.180   1.152   3.702 -0.2982 -0.2051 -0.1053
  774THF    H1313062   5.265   1.306   3.660  1.0303 -1.2286  0.0004
  775THF     O113063   4.677   2.191   0.552  0.0919  0.2058 -0.6066
  775THF     C213064   4.734   2.251   0.667  0.0469 -0.0971 -0.1923
  775THF     C313065   4.570   2.109   0.588  0.4554  0.1961  0.3327
  775THF     H413066   4.785   2.345   0.645  1.2340 -1.2911 -3.0723
  775THF     H513067   4.817   2.188   0.700 -0.1892  0.8481  2.4337
  775THF     H613068   4.508   2.081   0.504  0.7861 -2.8307  0.9923
  775THF     H713069   4.608   2.015   0.629 -0.0652 -1.4712 -2.7389
  775THF     C813070   4.504   2.180   0.703  0.6850 -0.6896  1.1341
  775THF     C913071   4.615   2.258   0.765  0.2129  0.0843 -0.1213
  775THF    H1013072   4.440   2.109   0.755  0.6411 -2.4568 -1.1658
  775THF    H1113073   4.438   2.263   0.675  0.1481 -0.9945  1.4701
  775THF    H1213074   4.578   2.359   0.779 -3.5361 -1.1664  0.0749
  775THF    H1313075   4.635   2.224   0.867 -0.5703  1.9307  0.6927
  776THF     O113076   3.006   0.221   1.427  0.7349  0.4551  0.4248
  776THF     C213077   3.029   0.319   1.534  0.2433  0.1594 -1.3518
  776THF     C313078   2.932   0.289   1.321 -0.7605  0.0773  0.1014
  776THF     H413079   3.104   0.286   1.605  0.6491  0.4647 -1.6337
  776THF     H513080   2.931   0.337   1.579  1.1135  1.5505  0.0644
  776THF     H613081   2.945   0.252   1.220  0.4381  3.5022 -1.1665
  776THF     H713082   2.827   0.294   1.350 -0.9489 -1.0808 -0.3531
  776THF     C813083   2.991   0.434   1.324 -0.9033  0.3643 -0.4059
  776THF     C913084   3.081   0.438   1.453  0.0261  0.3908  0.2962
  776THF    H1013085   2.912   0.508   1.320 -0.0075  1.6042  2.3603
  776THF    H1113086   3.063   0.454   1.245  0.3635 -1.3649  0.2403
  776THF    H1213087   3.186   0.433   1.424 -0.3769  0.6419 -1.2626
  776THF    H1313088   3.079   0.531   1.509  0.4546 -0.0951  1.1445
  777THF     O113089   0.927   2.188   3.928 -0.2873 -0.3865 -0.0383
  777THF     C213090   0.817   2.097   3.893  0.1602  0.9255 -0.0019
  777THF     C313091   0.948   2.187   4.065  0.4275  0.3734  0.1793
  777THF     H413092   0.852   1.994   3.890  0.4937  1.0384 -0.0544
  777THF     H513093   0.770   2.124   3.799 -1.0145 -2.9331 -0.6769
  777THF     H613094   0.996   2.095   4.098  2.5561  0.0490 -3.3694
  777THF     H713095   1.001   2.274   4.104 -0.3102  1.1194 -0.4267
  777THF     C813096   0.802   2.194   4.116  0.2379 -0.2371  0.4576
  777THF     C913097   0.723   2.116   4.014 -0.9212 -0.9594  0.1733
  777THF    H1013098   0.779   2.300   4.114  2.9962  0.4141 -1.1982
  777THF    H1113099   0.784   2.163   4.220 -2.5028  1.1526  0.4989
  777THF    H1213100   0.698   2.018   4.056  1.3281 -1.2471  0.9482
  777THF    H1313101   0.631   2.170   3.989 -0.5412  0.3037  1.3832
  778THF     O113102   0.173   2.835   1.438 -0.2499  0.0858  0.5909
  778THF     C213103   0.173   2.893   1.572 -0.2118  0.2698  0.0798
  778THF     C313104   0.035   2.783   1.416 -0.1153  0.0844  0.6363
  778THF     H413105   0.245   2.974   1.582 -1.2585  1.0577  1.6951
  778THF     H513106   0.195   2.818   1.648  1.2013 -0.4769 -1.0181
  778THF     H613107   0.028   2.770   1.308  2.5669 -0.4286  0.4484
  778THF     H713108   0.019   2.691   1.472  0.6345  0.1085  0.9122
  778THF     C813109  -0.049   2.896   1.473 -0.4108  0.2882 -0.3014
  778THF     C913110   0.030   2.929   1.596 -0.2025  0.8030  0.3349
  778THF    H1013111  -0.153   2.880   1.499 -0.4457  2.5464  1.2601
  778THF    H1113112  -0.051   2.978   1.401 -0.0854  0.8447  0.3123
  778THF    H1213113   0.014   3.031   1.631 -1.0138  1.0483 -0.7151
  778THF    H1313114  -0.003   2.855   1.669 -0.1343 -1.7863 -2.0984
  779THF     O113115   2.476   2.219   1.504 -0.2508  0.7165  0.2756
  779THF     C213116   2.343   2.240   1.547  0.5062 -0.7120 -0.3389
  779THF     C313117   2.507   2.090   1.550  0.4370  0.9424 -0.5162
  779THF     H413118   2.274   2.183   1.484 -1.3535  0.5044  0.4811
  779THF     H513119   2.313   2.344   1.531  0.6907 -0.6153 -0.0559
  779THF     H613120   2.453   2.014   1.494  1.2298  0.5445 -0.7563
  779THF     H713121   2.614   2.070   1.544  0.6145  1.9408 -0.8530
  779THF     C813122   2.451   2.088   1.692 -0.0842  0.0864 -0.1839
  779THF     C913123   2.339   2.194   1.692  1.2722  0.6114 -0.3903
  779THF    H1013124   2.521   2.123   1.768 -0.1565 -2.1145  0.9831
  779THF    H1113125   2.422   1.982   1.695  2.6482 -0.7613 -0.8220
  779THF    H1213126   2.245   2.141   1.706 -0.6472  3.2006 -2.3165
  779THF    H1313127   2.352   2.273   1.766  0.9882  1.9235 -1.6952
  780THF     O113128   2.849   0.227   5.001 -0.0165  0.1793 -0.1761
  780THF     C213129   2.728   0.279   4.961 -0.5342  0.4484  0.0648
  780THF     C313130   2.895   0.313   5.105  0.4067  0.8259 -0.5002
  780THF     H413131   2.654   0.200   4.968  1.0814 -1.1178  0.3049
  780THF     H513132   2.748   0.310   4.859  1.1277 -0.6591  0.0210
  780THF     H613133   2.965   0.256   5.167  1.1819  2.1712 -0.0907
  780THF     H713134   2.957   0.394   5.066  1.1733  0.0712 -0.9019
  780THF     C813135   2.778   0.359   5.181 -0.4539  0.1196  0.2998
  780THF     C913136   2.683   0.389   5.065 -0.3307 -0.0959 -0.0969
  780THF    H1013137   2.802   0.447   5.241 -1.4548  1.1023 -0.6729
  780THF    H1113138   2.733   0.282   5.243 -0.2896  0.9863  1.5442
  780THF    H1213139   2.577   0.386   5.086 -0.8874  0.2255 -2.5830
  780THF    H1313140   2.714   0.485   5.023 -0.5544 -0.0199 -0.0855
  781THF     O113141   0.591   0.160   2.616  0.0846 -0.4801  0.0179
  781THF     C213142   0.720   0.148   2.552 -0.3044  1.0022 -0.6207
  781THF     C313143   0.502   0.111   2.519 -0.0334  0.3244 -0.2404
  781THF     H413144   0.750   0.044   2.557  1.9111  1.6036 -0.5407
  781THF     H513145   0.798   0.207   2.600 -0.9415  0.1539  1.5766
  781THF     H613146   0.511   0.002   2.522 -0.0416  0.2652 -1.8560
  781THF     H713147   0.399   0.127   2.549  0.2466  0.2261  0.8192
  781THF     C813148   0.541   0.192   2.394  0.1410  0.4096 -0.1612
  781THF     C913149   0.697   0.177   2.404  0.2129 -0.3681  0.6326
  781THF    H1013150   0.513   0.297   2.404  0.1953  0.2977  1.3887
  781THF    H1113151   0.491   0.158   2.304  0.4881 -0.9578  0.1313
  781THF    H1213152   0.747   0.093   2.355 -0.2805 -0.3835  0.1404
  781THF    H1313153   0.743   0.269   2.370 -0.6827 -0.1419 -0.0048
  782THF     O113154   4.990   2.661   4.501 -0.2612  0.4041  0.0843
  782THF     C213155   5.002   2.725   4.374  0.4667 -0.3104 -0.4087
  782THF     C313156   5.008   2.757   4.602  0.3939 -0.2285 -0.0347
  782THF     H413157   4.908   2.776   4.356 -0.4011 -1.4614  0.7298
  782THF     H513158   5.008   2.662   4.286 -1.1227 -0.2772 -0.5715
  782THF     H613159   4.914   2.811   4.609  0.5937  0.1794 -0.4401
  782THF     H713160   5.032   2.713   4.699 -0.8263  0.8339  0.7783
  782THF     C813161   5.118   2.850   4.545 -0.8894 -0.2555 -0.1356
  782THF     C913162   5.128   2.824   4.401  0.7285  0.0909  0.5765
  782THF    H1013163   5.208   2.808   4.590 -1.0707 -1.2623 -0.6808
  782THF    H1113164   5.084   2.950   4.571  1.8560  0.2719  1.8787
  782THF    H1213165   5.122   2.915   4.342 -0.6549 -0.4898 -0.2203
  782THF    H1313166   5.221   2.775   4.370 -0.7814 -1.6709 -1.4945
  783THF     O113167   3.057   3.034   4.879 -0.3182 -0.0744  0.4894
  783THF     C213168   3.094   3.029   4.747  0.1300 -0.3583  0.3169
  783THF     C313169   2.930   2.984   4.885  0.3633  0.1482  0.0524
  783THF     H413170   3.201   3.006   4.746 -0.1379 -1.7747 -1.2451
  783THF     H513171   3.069   3.125   4.701 -1.2388 -0.2821  1.1701
  783THF     H613172   2.903   2.973   4.990  0.0872  0.2999 -0.0027
  783THF     H713173   2.860   3.058   4.846  0.0859 -0.2144 -0.1332
  783THF     C813174   2.918   2.862   4.791  0.2432 -0.0117  0.0181
  783THF     C913175   3.011   2.917   4.684  0.4350 -0.8707  0.1673
  783THF    H1013176   2.814   2.840   4.765  0.9262 -0.8299 -2.3289
  783THF    H1113177   2.961   2.774   4.838 -1.2660  0.6405  2.8359
  783THF    H1213178   3.075   2.832   4.658 -0.7868 -2.5933  2.3878
  783THF    H1313179   2.961   2.937   4.589 -1.8258  1.1112  1.6639
  784THF     O113180   2.270   2.563   4.600 -0.3866 -0.2427 -0.2522
  784THF     C213181   2.273   2.427   4.622  0.0153  0.5507  0.0492
  784THF     C313182   2.167   2.609   4.519  0.1198  0.5184 -0.2334
  784THF     H413183   2.208   2.386   4.700  0.6246 -1.2970 -0.3594
  784THF     H513184   2.370   2.383   4.648 -0.8549 -0.1069  2.4794
  784THF     H613185   2.089   2.653   4.581  0.4089  0.1700  0.3852
  784THF     H713186   2.213   2.681   4.451 -2.1738  2.3512  0.0447
  784THF     C813187   2.126   2.480   4.440  0.2032 -0.4263 -1.1580
  784THF     C913188   2.234   2.375   4.481 -0.7536 -0.1835 -0.0261
  784THF    H1013189   2.129   2.484   4.331 -0.4395  2.5898 -1.1470
  784THF    H1113190   2.030   2.430   4.450  0.4401 -0.7486 -0.4560
  784THF    H1213191   2.194   2.276   4.459 -0.6519  0.2630 -2.5091
  784THF    H1313192   2.328   2.375   4.425 -0.2774  0.1796  0.7664
  785THF     O113193   3.938   2.171   0.415  0.2818  0.2782 -0.3418
  785THF     C213194   3.808   2.142   0.380 -0.2929  0.1633  0.6280
  785THF     C313195   3.951   2.310   0.386  0.2908  0.1905  0.2783
  785THF     H413196   3.790   2.058   0.447  1.8426  0.4458  1.6576
  785THF     H513197   3.811   2.110   0.276 -2.0481  2.3152 -0.1664
  785THF     H613198   4.047   2.339   0.427  0.3660  1.2692 -0.6090
  785THF     H713199   3.962   2.328   0.279  1.5444 -1.7863  0.0370
  785THF     C813200   3.815   2.379   0.427  0.3769 -0.0760 -0.3108
  785THF     C913201   3.720   2.263   0.414 -0.3479 -0.2269  0.5211
  785THF    H1013202   3.794   2.451   0.349  0.6175 -0.1790 -0.4724
  785THF    H1113203   3.810   2.416   0.530  1.7997  1.8174 -0.8631
  785THF    H1213204   3.671   2.248   0.510 -0.3792 -0.0549  0.5311
  785THF    H1313205   3.650   2.291   0.335  0.4758 -0.8703 -0.4671
  786THF     O113206   5.319   1.863   4.637 -0.3794 -0.0820 -0.0068
  786THF     C213207   5.266   1.889   4.507 -0.3355 -0.9828 -1.0563
  786THF     C313208   5.234   1.926   4.726  0.7088 -0.0867 -0.0933
  786THF     H413209   5.312   1.830   4.427  2.7730 -0.1851 -0.0228
  786THF     H513210   5.290   1.989   4.473 -0.3622 -0.8769 -0.7630
  786THF     H613211   5.257   1.875   4.820  0.2837  0.3941  0.2816
  786THF     H713212   5.260   2.030   4.745  0.1210 -0.2884  2.1791
  786THF     C813213   5.092   1.905   4.675  0.0225 -0.5185 -0.0722
  786THF     C913214   5.112   1.880   4.523 -0.0835 -0.2366 -0.5970
  786THF    H1013215   5.045   1.998   4.705  1.7834 -0.6394  3.7160
  786THF    H1113216   5.054   1.834   4.749  0.6327  0.8837  1.6736
  786THF    H1213217   5.070   1.781   4.509 -1.8918  0.1730  1.3779
  786THF    H1313218   5.054   1.944   4.456 -1.8429 -0.5061  0.6068
  787THF     O113219   5.454   0.130   1.885  0.2312  0.0021  0.1475
  787THF     C213220   5.534   0.016   1.902 -0.2758  0.2239  0.3485
  787THF     C313221   5.473   0.209   1.997 -0.7414 -0.2452 -0.3840
  787THF     H413222   5.560  -0.019   1.802  0.1257  0.1391  0.4788
  787THF     H513223   5.495  -0.064   1.965 -2.8949  1.6204  0.6399
  787THF     H613224   5.433   0.309   1.983  2.5491  1.8401  3.3459
  787THF     H713225   5.410   0.181   2.081 -1.3300  2.4047  0.1428
  787THF     C813226   5.626   0.207   2.021  0.6310 -0.0469 -0.1311
  787THF     C913227   5.663   0.072   1.957 -0.6531 -0.1266 -0.8962
  787THF    H1013228   5.651   0.219   2.127 -0.2708  1.3469 -0.0485
  787THF    H1113229   5.681   0.288   1.975  2.0160 -0.2814  1.0513
  787THF    H1213230   5.733   0.086   1.874  1.0016 -0.1932  0.4366
  787THF    H1313231   5.710   0.005   2.029 -1.3143 -1.6304 -1.7957
  788THF     O113232   5.344   4.518   1.125  0.5971 -0.0223 -0.9403
  788THF     C213233   5.287   4.493   1.003  0.1261 -0.0080  0.8775
  788THF     C313234   5.429   4.631   1.097  0.3743 -0.4647 -0.2291
  788THF     H413235   5.205   4.422   1.011  1.4984 -1.5743  1.4947
  788THF     H513236   5.359   4.442   0.940 -1.9597 -0.6061 -1.1542
  788THF     H613237   5.476   4.675   1.185 -1.0254  0.6289  0.0179
  788THF     H713238   5.503   4.600   1.024 -0.1716 -0.9596 -0.5790
  788THF     C813239   5.333   4.723   1.016 -0.9510  0.1996  0.3866
  788THF     C913240   5.241   4.624   0.950 -0.5228 -0.3022  0.6588
  788THF    H1013241   5.384   4.772   0.933 -1.1772  0.5819  0.4721
  788THF    H1113242   5.274   4.775   1.092  0.3530 -0.3388  1.8191
  788THF    H1213243   5.140   4.655   0.978 -1.0109 -1.1763 -0.0623
  788THF    H1313244   5.244   4.628   0.841 -0.7967  3.7479  0.6360
  789THF     O113245   3.589   4.274   3.271 -0.0479  0.2399 -0.2366
  789THF     C213246   3.553   4.343   3.388 -0.2956 -0.5675 -1.1022
  789THF     C313247   3.654   4.361   3.190  0.2517  0.4904 -0.0816
  789THF     H413248   3.580   4.276   3.470 -0.1516  0.7449 -0.0311
  789THF     H513249   3.448   4.371   3.402 -0.5223 -1.6953 -0.3700
  789THF     H613250   3.719   4.299   3.129 -0.9958 -1.1954  0.2286
  789THF     H713251   3.590   4.416   3.122 -0.5028 -0.9530 -0.5796
  789THF     C813252   3.736   4.436   3.289  0.1463  0.4917  0.1014
  789THF     C913253   3.636   4.471   3.393  0.1645  0.5883 -0.1735
  789THF    H1013254   3.782   4.522   3.240 -0.4236  1.3675  1.0740
  789THF    H1113255   3.815   4.369   3.322  0.3562  0.2284 -0.8936
  789THF    H1213256   3.692   4.489   3.486  0.6621  0.3857 -0.4293
  789THF    H1313257   3.577   4.559   3.367  0.1733  0.4719 -0.5796
  790THF     O113258   4.324   1.305   4.551  0.1115  0.2640 -0.0049
  790THF     C213259   4.444   1.340   4.488  0.4002  0.0475 -0.6198
  790THF     C313260   4.306   1.165   4.553  0.0472 -0.4248 -0.4109
  790THF     H413261   4.525   1.362   4.558 -0.6996 -0.5071  0.8707
  790THF     H513262   4.428   1.434   4.434  0.0263  2.5922  3.4792
  790THF     H613263   4.357   1.108   4.631 -3.0965 -3.1566 -0.1506
  790THF     H713264   4.203   1.135   4.569  0.1606  0.5316  2.8250
  790THF     C813265   4.355   1.126   4.408 -0.1997 -0.5150 -0.1328
  790THF     C913266   4.463   1.233   4.385  0.1930  0.3860  0.3506
  790THF    H1013267   4.279   1.141   4.331  0.3951  2.5658 -0.2536
  790THF    H1113268   4.399   1.027   4.402 -0.1846 -0.4245 -2.2116
  790THF    H1213269   4.561   1.188   4.398  0.5535  1.3385  1.0741
  790THF    H1313270   4.448   1.270   4.284  0.9684 -3.4499 -1.3429
  791THF     O113271   5.184   2.105   0.571  0.5346  0.0220  0.0152
  791THF     C213272   5.065   2.039   0.544 -0.1075  0.2598 -0.0810
  791THF     C313273   5.238   2.045   0.693  0.1711 -0.1605  0.5831
  791THF     H413274   5.041   2.024   0.439 -0.0370  2.5255 -0.4814
  791THF     H513275   4.988   2.100   0.592  1.4655  1.7681  0.6522
  791THF     H613276   5.340   2.079   0.708  0.0630  0.5115 -0.1758
  791THF     H713277   5.181   2.068   0.783 -1.7006 -2.0925 -0.0124
  791THF     C813278   5.209   1.896   0.662  0.2693 -0.8890 -0.0267
  791THF     C913279   5.073   1.898   0.603  0.0372  0.6759  0.1734
  791THF    H1013280   5.229   1.843   0.755  1.8776  1.5458  1.0993
  791THF    H1113281   5.293   1.862   0.602 -0.9194 -1.0830 -1.6670
  791THF    H1213282   5.057   1.824   0.524  2.5173  0.0619  0.1367
  791THF    H1313283   4.997   1.884   0.679 -0.0601 -0.2232 -0.0865
  792THF     O113284   4.865   4.513   2.200 -0.4135  0.6355  0.4464
  792THF     C213285   4.854   4.628   2.122  0.4236 -0.2981  0.2179
  792THF     C313286   5.001   4.512   2.242  1.0192  0.0580  0.3242
  792THF     H413287   4.864   4.720   2.179  0.0033  0.7633 -1.3573
  792THF     H513288   4.759   4.637   2.070  0.4489  0.0058  0.2232
  792THF     H613289   5.023   4.597   2.307  3.1175  1.2335 -1.7569
  792THF     H713290   5.018   4.421   2.299 -1.1081 -0.6204 -0.0423
  792THF     C813291   5.064   4.536   2.108 -0.1443  0.1525 -0.0055
  792THF     C913292   4.965   4.610   2.026 -0.6907 -0.2647 -0.2519
  792THF    H1013293   5.095   4.438   2.070  0.5463 -0.1397  1.2498
  792THF    H1113294   5.154   4.592   2.132 -0.2283  0.7558 -1.0554
  792THF    H1213295   5.005   4.709   2.005  0.9088 -1.1032 -1.4293
  792THF    H1313296   4.943   4.567   1.928  0.7158 -2.0633  0.1628
  793THF     O113297   4.728   0.424   2.524  0.5961 -0.4037 -0.1129
  793THF     C213298   4.734   0.549   2.457 -0.3773 -0.1133  0.0883
  793THF     C313299   4.728   0.325   2.418 -0.6914 -0.7009  0.5265
  793THF     H413300   4.833   0.562   2.412 -1.1301  3.6042 -0.7843
  793THF     H513301   4.725   0.636   2.521  2.0179 -0.2071  0.6647
  793THF     H613302   4.830   0.311   2.384 -0.6100 -0.7535  0.7915
  793THF     H713303   4.694   0.227   2.451  1.7792 -2.3559 -1.4850
  793THF     C813304   4.649   0.384   2.302  0.2560 -0.3746  0.6146
  793THF     C913305   4.630   0.536   2.341 -0.6839 -0.0648  0.1188
  793THF    H1013306   4.558   0.324   2.306 -0.3483  0.6006  2.3487
  793THF    H1113307   4.693   0.362   2.204 -1.0107 -0.6643  0.0865
  793THF    H1213308   4.655   0.609   2.263  1.9506 -0.6696  0.2985
  793THF    H1313309   4.528   0.561   2.370 -0.1046  0.1914  2.0494
  794THF     O113310   1.087   3.242   3.529 -0.4989 -0.7025 -0.4742
  794THF     C213311   1.137   3.121   3.471  0.6764 -0.4333  0.1579
  794THF     C313312   0.958   3.218   3.582 -0.1190 -0.6465 -0.2036
  794THF     H413313   1.242   3.129   3.444  0.5340  2.1172  0.0547
  794THF     H513314   1.090   3.110   3.374  2.6976  0.2658 -0.9580
  794THF     H613315   0.954   3.271   3.677 -2.1287 -0.9106 -0.0971
  794THF     H713316   0.880   3.263   3.520  0.9489  0.5982 -0.7127
  794THF     C813317   0.950   3.067   3.601 -0.2131  0.0326  0.9472
  794THF     C913318   1.093   3.008   3.570  0.5417  0.5862 -1.0278
  794THF    H1013319   0.888   3.023   3.523  1.8914 -0.7524 -0.3881
  794THF    H1113320   0.919   3.028   3.699 -1.2897  1.4894  1.2208
  794THF    H1213321   1.156   3.001   3.658  0.4085  1.5056 -0.8485
  794THF    H1313322   1.088   2.909   3.525  0.7388 -1.8447  3.6725
  795THF     O113323   5.237   3.418   3.905 -0.3349  0.2730  0.1176
  795THF     C213324   5.250   3.558   3.883  0.4655 -0.1300  0.9069
  795THF     C313325   5.106   3.375   3.862 -0.7301  0.1468  0.7443
  795THF     H413326   5.353   3.577   3.855  0.1789 -1.2691 -1.1090
  795THF     H513327   5.216   3.611   3.972  0.1174  1.0243  0.1007
  795THF     H613328   5.094   3.269   3.841 -1.3150  0.0768  1.3698
  795THF     H713329   5.032   3.398   3.939 -0.4034  0.4355  0.9785
  795THF     C813330   5.091   3.447   3.731 -0.5457 -0.0397 -0.3224
  795THF     C913331   5.164   3.581   3.758 -0.0523  0.1565  0.2285
  795THF    H1013332   4.992   3.474   3.696 -0.0109  2.2255 -0.2520
  795THF    H1113333   5.145   3.407   3.645 -0.8933  1.9558 -1.5142
  795THF    H1213334   5.234   3.624   3.686  2.8353 -0.2714  2.5625
  795THF    H1313335   5.093   3.653   3.797 -1.7160 -2.0542  1.4866
  796THF     O113336   3.602   4.732   0.765  0.1483 -0.3318  0.3239
  796THF     C213337   3.698   4.809   0.694  0.6635 -0.2101  1.0481
  796THF     C313338   3.532   4.645   0.672  0.0604 -0.6601 -0.1288
  796THF     H413339   3.796   4.771   0.722  1.3682  0.7445 -0.0583
  796THF     H513340   3.691   4.914   0.722 -0.0022 -0.2963  1.2204
  796THF     H613341   3.508   4.549   0.717  0.7806 -1.2242 -0.9154
  796THF     H713342   3.440   4.700   0.655  1.3526  1.3164 -1.1313
  796THF     C813343   3.615   4.637   0.548  0.3653 -0.5796 -0.6970
  796THF     C913344   3.672   4.783   0.544 -0.1530 -0.0740  0.2115
  796THF    H1013345   3.558   4.618   0.457 -0.0784 -0.8194 -0.3685
  796THF    H1113346   3.697   4.569   0.573 -0.1447 -0.5585  1.1484
  796THF    H1213347   3.753   4.774   0.473 -1.6888 -1.9753 -1.4245
  796THF    H1313348   3.604   4.859   0.505 -0.3594 -0.4755 -0.2121
  797THF     O113349   4.981   1.488   3.580 -0.1599 -0.3650  0.1426
  797THF     C213350   4.960   1.626   3.619 -0.9480 -0.0905  0.2355
  797THF     C313351   4.870   1.430   3.510  0.3322 -0.2352 -0.1014
  797THF     H413352   5.021   1.697   3.563  1.6586 -2.7267 -0.5319
  797THF     H513353   4.992   1.658   3.719 -0.4503  3.6716 -0.9526
  797THF     H613354   4.869   1.454   3.403 -1.2219  0.4483  0.0306
  797THF     H713355   4.859   1.326   3.539  0.2965 -0.6377 -1.4734
  797THF     C813356   4.763   1.508   3.578 -0.2124  0.0738  0.3577
  797THF     C913357   4.813   1.645   3.599 -0.4885  0.0676  0.2732
  797THF    H1013358   4.740   1.468   3.676 -1.3514 -1.3936 -0.4674
  797THF    H1113359   4.665   1.503   3.531 -0.3147  1.2469  0.4075
  797THF    H1213360   4.812   1.705   3.508 -2.5632 -1.3314 -0.6836
  797THF    H1313361   4.749   1.692   3.673  0.1269  0.2927  0.6719
  798THF     O113362   1.848   2.977   2.397 -0.3068  0.1353  0.3163
  798THF     C213363   1.718   2.990   2.432  0.3537  0.8127  0.2354
  798THF     C313364   1.896   3.103   2.357 -0.4702 -0.0349  0.0708
  798THF     H413365   1.697   3.057   2.515 -1.5849 -0.2854  0.7053
  798THF     H513366   1.674   2.891   2.446  0.9470  0.2921 -1.3762
  798THF     H613367   1.915   3.162   2.447  0.8185  1.1639 -0.9286
  798THF     H713368   1.994   3.090   2.310 -0.1101 -0.0376  0.8109
  798THF     C813369   1.779   3.162   2.275 -0.1459 -0.0211 -0.1015
  798THF     C913370   1.667   3.067   2.309 -0.2198 -0.2513 -0.6225
  798THF    H1013371   1.794   3.162   2.167  0.5875 -0.5491 -0.0061
  798THF    H1113372   1.761   3.264   2.310 -0.4891 -0.1775  0.1809
  798THF    H1213373   1.575   3.123   2.325 -0.5345 -0.9074 -0.1342
  798THF    H1313374   1.647   3.002   2.224 -0.4132 -1.6570  0.4613
  799THF     O113375   4.854   3.829   2.974 -0.5640 -0.1843  0.1765
  799THF     C213376   4.923   3.733   2.898 -0.3055  0.1292 -0.0459
  799THF     C313377   4.949   3.932   3.009 -0.1593 -0.7402  0.1583
  799THF     H413378   4.918   3.762   2.793  0.6178  0.1003 -0.1020
  799THF     H513379   4.874   3.635   2.891  0.7313 -0.4726  0.8102
  799THF     H613380   4.949   4.021   2.946 -1.3893 -1.2361 -0.5574
  799THF     H713381   4.929   3.967   3.111  1.0149  1.1887 -0.2052
  799THF     C813382   5.086   3.863   3.020 -0.5541 -0.2049  0.3630
  799THF     C913383   5.066   3.727   2.945 -0.0452 -0.2484  0.3970
  799THF    H1013384   5.106   3.830   3.122 -0.6572 -1.0027  0.1394
  799THF    H1113385   5.160   3.932   2.981 -0.5099 -1.0784 -1.2138
  799THF    H1213386   5.133   3.719   2.858 -0.7285 -1.1806 -0.0636
  799THF    H1313387   5.083   3.642   3.011  0.7222  0.9692  1.8158
  800THF     O113388   1.613   0.217   3.581 -0.1152 -0.6053 -0.0351
  800THF     C213389   1.582   0.308   3.689 -0.3590  1.1180  0.2031
  800THF     C313390   1.738   0.241   3.528  0.1221  0.1533  0.0546
  800THF     H413391   1.617   0.265   3.782  2.3041 -0.2963 -1.3225
  800THF     H513392   1.477   0.337   3.697 -1.0208 -0.7163 -1.1076
  800THF     H613393   1.801   0.152   3.526 -0.2796 -0.1263 -0.1227
  800THF     H713394   1.719   0.264   3.424 -0.9694  0.9055  0.4015
  800THF     C813395   1.794   0.371   3.589  0.0305  0.1804  0.5515
  800THF     C913396   1.679   0.425   3.670 -0.5567 -0.6721 -0.0425
  800THF    H1013397   1.818   0.448   3.515  0.4584 -0.1376  0.3587
  800THF    H1113398   1.880   0.352   3.653 -0.1672 -0.9446  0.4868
  800THF    H1213399   1.709   0.461   3.769 -3.5048 -0.2375  0.7784
  800THF    H1313400   1.638   0.512   3.618  1.4508 -0.0882 -0.7525
  801THF     O113401   4.712   4.062   3.231 -0.5615 -0.2208 -0.3798
  801THF     C213402   4.670   4.197   3.244 -0.1020 -0.2474  0.4352
  801THF     C313403   4.607   3.994   3.296 -0.0635 -0.4775 -0.4059
  801THF     H413404   4.589   4.221   3.175  0.7270  0.0261 -0.4570
  801THF     H513405   4.759   4.253   3.216  0.8508 -0.6394  2.4452
  801THF     H613406   4.509   4.001   3.248 -0.6317 -2.8193  0.2683
  801THF     H713407   4.632   3.889   3.311  2.6318  0.1316 -0.2192
  801THF     C813408   4.601   4.072   3.427 -0.0846  1.0542 -0.7033
  801THF     C913409   4.621   4.215   3.389  0.0208 -0.0825  0.1997
  801THF    H1013410   4.664   4.050   3.513  0.1601  3.2718 -0.2534
  801THF    H1113411   4.508   4.054   3.481  0.5843  0.5800  0.3186
  801THF    H1213412   4.529   4.271   3.403 -0.0993 -0.6241  1.7795
  801THF    H1313413   4.685   4.271   3.457 -0.1348 -1.1411  1.2605
  802THF     O113414   4.674   4.406   5.343 -0.7367  0.0903  0.5361
  802THF     C213415   4.780   4.361   5.260  0.0297 -0.1904 -0.0882
  802THF     C313416   4.607   4.504   5.259 -1.2448  0.2306  0.4709
  802THF     H413417   4.804   4.257   5.280  0.3288  0.0656  0.9150
  802THF     H513418   4.874   4.415   5.273  0.7919 -0.1649 -4.2395
  802THF     H613419   4.507   4.530   5.294 -0.9137  2.4716 -0.1269
  802THF     H713420   4.672   4.591   5.262  0.3717 -0.9181  0.4175
  802THF     C813421   4.597   4.449   5.114 -0.5678 -0.6664  0.1208
  802THF     C913422   4.721   4.366   5.115 -0.0775  0.0048  0.4964
  802THF    H1013423   4.603   4.527   5.039  0.0471  1.1493  1.9877
  802THF    H1113424   4.509   4.385   5.103  0.0873 -1.5715  0.0522
  802THF    H1213425   4.695   4.268   5.076  0.7379  0.1093 -0.3443
  802THF    H1313426   4.782   4.417   5.040 -0.3775  1.5190  1.2316
  803THF     O113427   1.568   0.546   2.189  0.4492  1.2027  0.0489
  803THF     C213428   1.622   0.447   2.277  0.0378 -0.4742  0.7051
  803THF     C313429   1.447   0.595   2.246  0.1384 -0.0225  0.0034
  803THF     H413430   1.731   0.445   2.283  0.1162 -0.1955 -0.3549
  803THF     H513431   1.598   0.350   2.233  0.7479 -0.9508  1.3431
  803THF     H613432   1.427   0.694   2.204  0.0062 -0.8641 -2.0061
  803THF     H713433   1.362   0.529   2.229  2.3943 -3.2920  0.5385
  803THF     C813434   1.477   0.596   2.398 -0.1069  0.1115  0.5080
  803THF     C913435   1.564   0.470   2.414  0.0391  0.1447  0.0277
  803THF    H1013436   1.384   0.601   2.455 -0.1839  0.4044  0.3611
  803THF    H1113437   1.535   0.686   2.417  2.1613 -0.5745 -2.3543
  803THF    H1213438   1.641   0.502   2.484 -0.4961  1.0410  0.2208
  803THF    H1313439   1.510   0.389   2.465 -1.0908  0.3440 -0.8158
  804THF     O113440   4.475   4.029   2.707  0.1673 -0.0610  0.3063
  804THF     C213441   4.559   3.967   2.810 -0.1484 -0.1447  0.4116
  804THF     C313442   4.368   4.099   2.768  0.2875 -0.2533 -0.5580
  804THF     H413443   4.661   4.004   2.802  0.8779 -2.1300  2.8126
  804THF     H513444   4.568   3.860   2.791  1.5800  0.3415 -1.9943
  804THF     H613445   4.397   4.203   2.779  0.3316 -0.1754 -1.3594
  804THF     H713446   4.268   4.091   2.725 -0.3035 -0.2664  0.7495
  804THF     C813447   4.358   4.043   2.910 -0.1952  0.5353  0.1348
  804THF     C913448   4.503   4.009   2.943 -0.4827  0.6160 -0.4473
  804THF    H1013449   4.307   3.947   2.910  1.4608 -0.4666 -2.6833
  804THF    H1113450   4.308   4.100   2.988  1.4815  2.5820 -0.1732
  804THF    H1213451   4.558   4.093   2.985 -1.5381  0.3420  1.6190
  804THF    H1313452   4.510   3.933   3.021 -1.3671  1.7122  0.7401
  805THF     O113453   2.337   0.311   2.202 -0.3241 -0.1704 -0.2847
  805THF     C213454   2.199   0.295   2.174 -0.3593 -0.0333  0.1747
  805THF     C313455   2.369   0.445   2.160 -0.0638 -0.1301 -0.5791
  805THF     H413456   2.154   0.325   2.269  0.0389  1.2202 -0.0114
  805THF     H513457   2.183   0.191   2.147 -0.5046 -0.0789  0.4291
  805THF     H613458   2.338   0.522   2.231  0.5054 -1.5154  1.2639
  805THF     H713459   2.478   0.448   2.150 -0.2103  1.0700 -2.2219
  805THF     C813460   2.290   0.459   2.032 -0.1150 -0.5727  0.2023
  805THF     C913461   2.160   0.385   2.057 -0.2754  0.2124  0.3654
  805THF    H1013462   2.347   0.407   1.954  0.3392  0.4490 -0.1619
  805THF    H1113463   2.261   0.561   2.007 -0.6165 -1.4718 -3.4261
  805THF    H1213464   2.082   0.449   2.097  0.6056 -0.5181  3.5876
  805THF    H1313465   2.120   0.338   1.967  1.3105  0.2263 -0.3970
  806THF     O113466   1.576   2.339   4.827 -0.3217 -0.1297 -0.1451
  806THF     C213467   1.489   2.285   4.729  0.0160 -0.0671 -0.0214
  806THF     C313468   1.701   2.363   4.755  0.2825 -1.2215  0.5668
  806THF     H413469   1.445   2.365   4.669 -0.3437 -1.0075 -1.0577
  806THF     H513470   1.406   2.226   4.768 -0.9084 -0.4306 -2.3186
  806THF     H613471   1.693   2.454   4.696  2.0821 -2.3109 -1.5267
  806THF     H713472   1.784   2.377   4.825  1.5590  0.8586 -1.2381
  806THF     C813473   1.714   2.252   4.652  0.5993 -0.0280 -0.6749
  806THF     C913474   1.575   2.188   4.642  0.0476  0.3404 -0.3614
  806THF    H1013475   1.780   2.179   4.699  0.1974  0.4263  0.6392
  806THF    H1113476   1.748   2.282   4.553  1.4473 -1.6115 -0.9100
  806THF    H1213477   1.539   2.178   4.540 -0.6835  0.6267 -0.1332
  806THF    H1313478   1.568   2.089   4.688 -1.2942  0.7081  0.2785
  807THF     O113479   1.880   0.723   4.274 -0.8151 -0.4095 -0.3370
  807THF     C213480   1.979   0.682   4.178  0.0451 -0.2235 -0.0777
  807THF     C313481   1.766   0.660   4.239  0.3434 -0.2021 -0.0471
  807THF     H413482   2.036   0.592   4.199  3.2196  1.0114 -2.4378
  807THF     H513483   2.053   0.761   4.162  0.5447 -1.1300 -2.6931
  807THF     H613484   1.769   0.555   4.268  0.4559  0.5004  2.8336
  807THF     H713485   1.692   0.710   4.302  0.9430  1.6869 -0.7916
  807THF     C813486   1.757   0.686   4.092 -0.3843  0.0083 -0.5913
  807THF     C913487   1.900   0.656   4.054  0.4519 -0.6009  0.3440
  807THF    H1013488   1.740   0.794   4.088  1.2027  0.4680  2.1660
  807THF    H1113489   1.689   0.632   4.027 -0.1411  0.5365 -1.2969
  807THF    H1213490   1.915   0.551   4.028 -1.4548 -0.9957  0.6579
  807THF    H1313491   1.937   0.720   3.974  0.3194  0.4682  1.1206
  808THF     O113492   0.491   0.162   3.870 -0.1839 -0.3533 -0.2386
  808THF     C213493   0.519   0.277   3.789 -0.4264  0.6215  0.2407
  808THF     C313494   0.438   0.209   3.991  0.1632  0.3902  0.0183
  808THF     H413495   0.531   0.240   3.687 -0.1526  0.2426  0.4082
  808THF     H513496   0.606   0.327   3.831  0.7422 -0.7079 -0.5032
  808THF     H613497   0.383   0.125   4.032  0.0240 -0.1634 -1.2367
  808THF     H713498   0.520   0.242   4.055 -1.4553  1.8827  1.4208
  808THF     C813499   0.344   0.327   3.945 -0.2744  0.1357 -0.4444
  808THF     C913500   0.393   0.364   3.807  0.3023 -0.7520  0.5898
  808THF    H1013501   0.350   0.410   4.016 -1.1977 -0.5259  0.4205
  808THF    H1113502   0.240   0.298   3.932  0.1968 -1.5104 -0.7375
  808THF    H1213503   0.315   0.338   3.735  0.6088 -0.1685  0.0341
  808THF    H1313504   0.415   0.470   3.797 -0.5722 -0.4137  2.0518
  809THF     O113505   2.379   5.118   3.199  0.1481  0.2077 -0.4052
  809THF     C213506   2.298   5.034   3.125  0.2864  0.1648  0.0925
  809THF     C313507   2.365   5.257   3.158 -0.2993 -0.4233  0.4685
  809THF     H413508   2.199   5.052   3.168  1.1742  0.1364  2.2256
  809THF     H513509   2.325   4.929   3.127  0.8708  0.2807 -0.8571
  809THF     H613510   2.270   5.307   3.177 -1.1116 -0.8296 -2.1183
  809THF     H713511   2.448   5.316   3.195 -0.0290 -1.1600  1.0558
  809THF     C813512   2.365   5.240   3.010 -0.2815  0.3940 -0.1628
  809THF     C913513   2.306   5.100   2.983 -0.6688 -0.3362  0.5260
  809THF    H1013514   2.467   5.241   2.972 -0.5470 -2.3068 -1.1716
  809THF    H1113515   2.311   5.312   2.949  0.1219 -1.2248 -2.5977
  809THF    H1213516   2.203   5.112   2.951 -0.1293  1.5906 -0.6434
  809THF    H1313517   2.347   5.040   2.902 -3.3584 -1.2655 -0.2604
  810THF     O113518   3.755   1.102   2.650  0.2923  0.3666  0.1621
  810THF     C213519   3.879   1.041   2.628 -0.2058  0.1380 -0.2230
  810THF     C313520   3.660   1.025   2.568  0.3217 -0.3520 -0.3877
  810THF     H413521   3.903   0.983   2.717 -2.2090  0.0936  0.3448
  810THF     H513522   3.952   1.121   2.618 -0.8174  0.9486  1.4075
  810THF     H613523   3.587   0.976   2.632  1.7811 -1.4809  0.5021
  810THF     H713524   3.616   1.087   2.491  2.4296 -0.5321 -1.8331
  810THF     C813525   3.736   0.911   2.502 -0.3685 -0.7500  1.1804
  810THF     C913526   3.872   0.968   2.497  0.1100  0.7654  0.5895
  810THF    H1013527   3.702   0.878   2.404  2.6403 -2.6448  0.6240
  810THF    H1113528   3.735   0.823   2.566  0.9585 -0.2305  1.9501
  810THF    H1213529   3.950   0.893   2.484 -1.7164 -1.0043 -0.7774
  810THF    H1313530   3.890   1.034   2.412  3.0742 -0.4549  0.1314
  811THF     O113531   2.383   5.168   2.518 -0.5542  0.5246  0.1490
  811THF     C213532   2.323   5.227   2.625  0.2607  0.3884 -0.2093
  811THF     C313533   2.406   5.263   2.420  0.1506 -0.2652 -0.0476
  811THF     H413534   2.388   5.304   2.666 -0.2031  1.3907 -1.2750
  811THF     H513535   2.288   5.157   2.700  2.0125 -0.7883 -0.4336
  811THF     H613536   2.478   5.334   2.462 -0.8952 -0.1708  1.6904
  811THF     H713537   2.440   5.215   2.328  0.4760 -1.0530  0.4692
  811THF     C813538   2.270   5.340   2.419  0.7635  0.1820 -0.6395
  811THF     C913539   2.208   5.303   2.553  1.2384  0.0368 -0.3659
  811THF    H1013540   2.208   5.305   2.337  0.2201 -1.1039  0.3006
  811THF    H1113541   2.290   5.447   2.410  2.7175 -0.2183 -1.7061
  811THF    H1213542   2.173   5.386   2.614  0.7658 -0.7688  0.4787
  811THF    H1313543   2.117   5.243   2.547  1.9447 -1.2555  1.2560
  812THF     O113544   1.131   1.151   0.855 -0.2026  0.1745 -0.0624
  812THF     C213545   1.206   1.160   0.977 -0.2991 -0.8343 -0.5871
  812THF     C313546   0.992   1.165   0.888 -0.3654 -1.0826 -0.1673
  812THF     H413547   1.223   1.263   1.009  0.2224 -0.7189 -1.2051
  812THF     H513548   1.294   1.097   0.975  0.1316 -0.2552 -2.7896
  812THF     H613549   0.957   1.260   0.847 -0.4771 -1.3837 -0.7862
  812THF     H713550   0.925   1.092   0.842 -0.2166  0.7462 -3.6599
  812THF     C813551   0.975   1.149   1.039  0.4800  0.7513  0.0266
  812THF     C913552   1.111   1.096   1.080  0.3405  0.1763 -0.1749
  812THF    H1013553   0.898   1.076   1.066  0.4944  0.8225  0.2604
  812THF    H1113554   0.947   1.237   1.097 -0.7510 -0.6692  1.6985
  812THF    H1213555   1.139   1.134   1.179 -0.1646 -3.3093  1.4598
  812THF    H1313556   1.121   0.988   1.090  2.6650  0.3489  0.0071
  813THF     O113557   4.175   2.128   0.868 -0.0706 -0.3363 -0.3923
  813THF     C213558   4.157   2.009   0.793  1.2225 -0.5502 -0.2122
  813THF     C313559   4.101   2.230   0.812 -0.9129 -0.4522 -0.2776
  813THF     H413560   4.092   1.951   0.858 -0.2782 -0.6895 -1.7655
  813THF     H513561   4.245   1.952   0.762 -0.7069 -3.7790 -0.2256
  813THF     H613562   4.058   2.299   0.885 -1.6803 -0.6777 -0.4992
  813THF     H713563   4.159   2.283   0.737  0.2567 -2.4259 -0.8414
  813THF     C813564   3.998   2.173   0.721  0.1849 -0.0403 -0.3571
  813THF     C913565   4.073   2.051   0.672  0.0480  0.4807 -0.4741
  813THF    H1013566   3.967   2.243   0.643 -0.2263  0.2644  0.0743
  813THF    H1113567   3.910   2.141   0.777  0.1597 -0.7737 -0.8036
  813THF    H1213568   4.009   1.966   0.646  0.5941 -0.3669  0.8746
  813THF    H1313569   4.131   2.085   0.586  1.1284  1.6767  0.6810
  814THF     O113570   2.916   2.862   5.354 -0.8327 -0.3149  0.1875
  814THF     C213571   2.800   2.937   5.373 -0.0092  0.2369  0.5162
  814THF     C313572   2.884   2.724   5.363  0.4001  0.4576 -0.5304
  814THF     H413573   2.802   3.043   5.349 -0.6110  0.6558  2.1987
  814THF     H513574   2.783   2.927   5.480 -1.2793 -1.7870  0.1861
  814THF     H613575   2.969   2.666   5.328  0.9369 -0.0681  1.5595
  814THF     H713576   2.867   2.700   5.468  4.0898 -0.0282  0.0689
  814THF     C813577   2.767   2.719   5.275 -0.2349 -0.0981  0.4617
  814THF     C913578   2.688   2.853   5.300 -1.3587  0.3626 -0.0942
  814THF    H1013579   2.707   2.629   5.288 -0.7021  0.3745  1.7494
  814THF    H1113580   2.803   2.709   5.172  1.3880 -0.2498  1.0242
  814THF    H1213581   2.664   2.896   5.203  0.8608 -1.5377 -1.5965
  814THF    H1313582   2.599   2.844   5.362 -0.0132  0.4330  1.9319
  815THF     O113583   1.441   3.595   1.182  0.1948 -0.2961 -0.3437
  815THF     C213584   1.568   3.560   1.235  0.4917 -0.0474  0.6885
  815THF     C313585   1.436   3.526   1.055  0.0905  0.0899 -0.3984
  815THF     H413586   1.578   3.579   1.342  0.5485 -1.8402  1.0163
  815THF     H513587   1.645   3.609   1.176 -0.5472  1.4568  0.4999
  815THF     H613588   1.335   3.522   1.016 -0.0681 -0.6220  0.0691
  815THF     H713589   1.504   3.573   0.985 -1.0834  2.1764 -0.2016
  815THF     C813590   1.473   3.382   1.086  0.4565 -0.5648 -0.0873
  815THF     C913591   1.567   3.408   1.201  1.0366 -0.1897 -0.3991
  815THF    H1013592   1.508   3.333   0.995  1.5654 -2.7832  1.4186
  815THF    H1113593   1.383   3.325   1.110  0.3023 -0.9908 -1.5583
  815THF    H1213594   1.541   3.350   1.288  0.0623  0.0307 -0.5367
  815THF    H1313595   1.671   3.384   1.177  0.9988 -1.6956  0.8489
  816THF     O113596   1.986   1.571   4.385  0.5519 -0.4561  0.2671
  816THF     C213597   2.101   1.504   4.337  0.7385 -0.6411  0.3466
  816THF     C313598   1.879   1.488   4.361 -0.1852  0.1182 -0.3402
  816THF     H413599   2.140   1.441   4.416 -0.5888  0.8714  2.3045
  816THF     H513600   2.180   1.570   4.302  1.0129 -0.6032  1.0258
  816THF     H613601   1.863   1.408   4.433 -2.2553  1.3539  0.6910
  816THF     H713602   1.794   1.557   4.354  1.1094  1.7996 -0.2586
  816THF     C813603   1.898   1.421   4.227  0.5263 -0.6476 -0.0076
  816THF     C913604   2.046   1.419   4.222  0.5170 -0.5205  0.1911
  816THF    H1013605   1.862   1.481   4.143 -0.8793 -1.4123  0.0176
  816THF    H1113606   1.856   1.321   4.221 -1.2076 -0.1969  2.5522
  816THF    H1213607   2.085   1.318   4.235  0.9667 -0.6511 -1.8474
  816THF    H1313608   2.088   1.451   4.127  0.9012 -1.8064 -0.0898
  817THF     O113609   0.213   5.033   5.344 -0.1372 -0.0635  0.3170
  817THF     C213610   0.280   4.915   5.290 -0.0652 -0.1419 -0.2884
  817THF     C313611   0.209   5.122   5.234  0.0936  0.3162  0.0549
  817THF     H413612   0.271   4.841   5.369 -0.2835  2.6016  2.4197
  817THF     H513613   0.388   4.922   5.277 -0.1098 -0.8333 -1.1689
  817THF     H613614   0.134   5.200   5.247  0.1500  0.7295 -1.8549
  817THF     H713615   0.305   5.170   5.220 -0.0215  0.2620 -0.9759
  817THF     C813616   0.172   5.043   5.104 -0.3338 -0.4455 -0.0563
  817THF     C913617   0.190   4.897   5.162  0.0800  0.2808  0.3862
  817THF    H1013618   0.235   5.067   5.018 -0.5961  0.5728  0.0129
  817THF    H1113619   0.068   5.069   5.087  0.1543  2.3217  0.6487
  817THF    H1213620   0.100   4.847   5.195  0.1024  0.3125  0.4963
  817THF    H1313621   0.240   4.834   5.089 -0.0674  1.0210 -0.3752
  818THF     O113622   1.372   1.039   2.045  0.4926 -0.4422 -0.5454
  818THF     C213623   1.282   1.047   2.155  0.2288 -0.0169  0.0627
  818THF     C313624   1.396   1.175   2.004 -0.3152  0.6627 -0.6206
  818THF     H413625   1.304   0.964   2.222  0.8893  1.0154  1.1846
  818THF     H513626   1.180   1.040   2.118 -0.2555 -0.9613  1.5258
  818THF     H613627   1.478   1.178   1.932  0.3501 -0.4822  0.0492
  818THF     H713628   1.305   1.199   1.949 -1.7326 -1.0228  0.8471
  818THF     C813629   1.398   1.253   2.134 -0.7040  0.1577  0.2381
  818THF     C913630   1.302   1.193   2.219  0.2725 -0.2486 -0.0524
  818THF    H1013631   1.383   1.359   2.113 -1.2288 -0.0214 -0.3309
  818THF    H1113632   1.499   1.230   2.168  0.0979  1.1054 -1.3888
  818THF    H1213633   1.326   1.200   2.325  0.7631  1.5428 -0.2514
  818THF    H1313634   1.210   1.251   2.219  1.2668  1.3715 -0.3452
  819THF     O113635   2.200   3.902   4.484  0.0698  0.2536  0.0656
  819THF     C213636   2.306   4.003   4.482  0.0932  0.3886 -0.6635
  819THF     C313637   2.253   3.770   4.470  0.6719  0.9652  0.2039
  819THF     H413638   2.348   3.999   4.582  3.6740 -2.3539 -2.0139
  819THF     H513639   2.254   4.096   4.460  0.0969  0.8622  1.1749
  819THF     H613640   2.275   3.724   4.567  1.1337 -2.5904 -1.4378
  819THF     H713641   2.172   3.715   4.422 -0.1740  1.4524  1.0292
  819THF     C813642   2.382   3.787   4.382 -0.2543  0.6638 -0.0004
  819THF     C913643   2.415   3.936   4.382  0.7758  0.7948  0.1605
  819THF    H1013644   2.364   3.763   4.277  0.2345  1.1704 -0.2091
  819THF    H1113645   2.466   3.726   4.416  0.4879  0.3008 -2.3044
  819THF    H1213646   2.521   3.955   4.396  1.9452 -2.6396 -2.4141
  819THF    H1313647   2.395   3.966   4.279 -1.6610  2.0442  0.9243
  820THF     O113648   5.403   3.842   1.178 -0.3562 -0.4126  0.2968
  820THF     C213649   5.315   3.740   1.224 -0.0619 -0.2898 -0.2025
  820THF     C313650   5.532   3.827   1.242  0.1644 -0.3103  0.6659
  820THF     H413651   5.238   3.704   1.156  1.3391 -1.3450 -1.2860
  820THF     H513652   5.269   3.760   1.321  1.9422 -2.0169  1.1836
  820THF     H613653   5.614   3.842   1.171 -0.0091  1.3270  0.7823
  820THF     H713654   5.533   3.903   1.320 -0.4568 -0.8490  1.2097
  820THF     C813655   5.529   3.687   1.301  0.2828 -0.2259  0.4661
  820THF     C913656   5.406   3.624   1.233  0.1328  0.6627  0.0561
  820THF    H1013657   5.505   3.702   1.407 -0.4925 -0.4892  0.3320
  820THF    H1113658   5.623   3.635   1.284 -1.8623 -4.4654  0.3655
  820THF    H1213659   5.427   3.580   1.135  0.0319 -1.0383  0.7676
  820THF    H1313660   5.361   3.553   1.302 -0.6457 -0.0646 -1.1560
  821THF     O113661   2.367   1.844   5.135 -0.4485 -0.3851 -0.2168
  821THF     C213662   2.491   1.870   5.186  0.1076  0.0500  0.0606
  821THF     C313663   2.378   1.824   4.995  0.4719 -0.1539  0.2919
  821THF     H413664   2.565   1.792   5.205  2.6960  2.0551 -1.1301
  821THF     H513665   2.486   1.915   5.286 -1.3418 -2.5139  1.2364
  821THF     H613666   2.394   1.718   4.975 -2.7387 -0.5801 -0.6415
  821THF     H713667   2.288   1.845   4.937  0.9576  0.3852 -0.2852
  821THF     C813668   2.486   1.919   4.944 -0.3437 -0.2108 -0.3448
  821THF     C913669   2.561   1.947   5.075 -0.1851  0.5690 -0.6311
  821THF    H1013670   2.446   2.014   4.906  0.2117  2.0073  4.0097
  821THF    H1113671   2.537   1.854   4.873 -2.4122 -4.7049  1.8600
  821THF    H1213672   2.667   1.920   5.078 -0.4465 -0.4874 -0.5818
  821THF    H1313673   2.562   2.052   5.105  0.9187 -0.4205  3.2634
  822THF     O113674   3.396   1.947   5.466 -0.2978  0.1296  0.2787
  822THF     C213675   3.342   2.060   5.536  0.0950 -0.1073  0.2082
  822THF     C313676   3.541   1.948   5.460 -0.3083 -0.6760  0.0899
  822THF     H413677   3.301   2.031   5.633  1.6554 -5.0262 -0.3099
  822THF     H513678   3.258   2.098   5.479  0.8546  0.5169 -0.5238
  822THF     H613679   3.579   1.851   5.493  0.0504 -0.7671 -0.5765
  822THF     H713680   3.568   1.972   5.358 -0.1797  0.6085  0.4111
  822THF     C813681   3.579   2.057   5.560 -0.4192 -0.2744  0.0414
  822THF     C913682   3.465   2.150   5.543  0.8644 -0.6441  0.5591
  822THF    H1013683   3.671   2.106   5.526 -0.6415 -0.1902 -0.4387
  822THF    H1113684   3.585   2.016   5.661 -2.2504  1.3849  0.8784
  822THF    H1213685   3.460   2.233   5.614 -1.8561  0.5006 -0.8272
  822THF    H1313686   3.483   2.197   5.446  0.1779  1.7813  1.5409
  823THF     O113687   0.985   1.585   1.304 -0.1100 -0.4457  0.1282
  823THF     C213688   1.090   1.585   1.204 -0.0882  0.9964  0.7237
  823THF     C313689   0.990   1.699   1.380 -0.0968 -0.0615 -0.3166
  823THF     H413690   1.047   1.588   1.104  0.7469  1.3756  0.3609
  823THF     H513691   1.146   1.492   1.218 -1.3384 -0.0574 -0.9140
  823THF     H613692   0.894   1.741   1.410  0.1729  0.4070 -0.0966
  823THF     H713693   1.043   1.674   1.472 -1.1990  3.5103  1.5013
  823THF     C813694   1.083   1.791   1.300  0.2016 -1.1165 -0.3255
  823THF     C913695   1.178   1.701   1.235 -0.6941 -0.3372  0.5083
  823THF    H1013696   1.150   1.851   1.361  1.5914 -2.1626 -0.7434
  823THF    H1113697   1.017   1.851   1.238 -0.6825 -1.3697  0.3587
  823THF    H1213698   1.237   1.741   1.153 -0.4470  0.6262  1.1283
  823THF    H1313699   1.234   1.664   1.322 -3.0148 -0.3024  2.1130
  824THF     O113700   3.511   5.237   0.231 -0.8562  0.2367 -0.0846
  824THF     C213701   3.506   5.204   0.372 -0.2630 -0.3362 -0.2428
  824THF     C313702   3.386   5.265   0.179  0.1515 -0.3262  0.0567
  824THF     H413703   3.599   5.221   0.426 -0.8059 -0.3295  0.7118
  824THF     H513704   3.478   5.101   0.393  1.2002 -0.4180  1.5920
  824THF     H613705   3.389   5.325   0.087 -3.1188 -0.8545 -0.5267
  824THF     H713706   3.332   5.175   0.149  1.4259 -0.8515 -0.7663
  824THF     C813707   3.314   5.334   0.302  0.2442 -0.1686  0.2564
  824THF     C913708   3.393   5.298   0.421 -0.5458  0.1853  0.5881
  824THF    H1013709   3.209   5.305   0.299  0.5310 -1.2014 -0.0862
  824THF    H1113710   3.316   5.442   0.287  0.9634 -0.0594  1.0547
  824THF    H1213711   3.429   5.385   0.476  0.6675 -0.6517  1.1574
  824THF    H1313712   3.340   5.245   0.500  1.7385 -1.1285  1.3290
  825THF     O113713   3.806   0.957   5.118  0.4141  0.1561 -0.2445
  825THF     C213714   3.868   0.882   5.224 -0.2844  0.0039  0.3664
  825THF     C313715   3.669   0.981   5.159  0.4714  1.4772  0.5736
  825THF     H413716   3.875   0.936   5.318  0.0577 -1.4921  1.2238
  825THF     H513717   3.969   0.854   5.195 -0.8221  0.5200 -2.2597
  825THF     H613718   3.648   1.067   5.223 -1.6760  1.2037  0.3168
  825THF     H713719   3.600   0.993   5.076  0.6159  0.5922  0.3075
  825THF     C813720   3.640   0.848   5.229 -0.5605 -0.1277  0.0853
  825THF     C913721   3.769   0.771   5.232 -0.1427  0.6079  0.1826
  825THF    H1013722   3.563   0.789   5.179  0.3115 -1.3493  0.1455
  825THF    H1113723   3.614   0.879   5.331 -1.7858  1.0610 -0.5457
  825THF    H1213724   3.783   0.700   5.314  1.2727 -0.7281 -1.1481
  825THF    H1313725   3.784   0.710   5.143  2.5063 -1.0718  1.6451
  826THF     O113726   4.761   1.016   3.708 -0.4146 -0.0190 -0.0825
  826THF     C213727   4.792   0.941   3.823 -0.0259  0.6210  0.5377
  826THF     C313728   4.622   1.013   3.679 -0.4839  0.5456 -0.0949
  826THF     H413729   4.805   1.000   3.913  0.1724  0.7042  0.4547
  826THF     H513730   4.886   0.891   3.803 -0.8232  0.4474 -3.9461
  826THF     H613731   4.567   1.072   3.752 -0.9594 -0.5542  0.4594
  826THF     H713732   4.600   1.047   3.578  0.4504 -1.9735 -1.2432
  826THF     C813733   4.588   0.872   3.700  0.0955  0.6521  0.7209
  826THF     C913734   4.669   0.847   3.842 -0.5341 -0.7090  0.3919
  826THF    H1013735   4.620   0.811   3.616  0.9588  1.1302  0.6899
  826THF    H1113736   4.482   0.848   3.703  0.2909 -0.5602 -0.7549
  826THF    H1213737   4.611   0.870   3.931 -1.1391 -3.1667  0.7143
  826THF    H1313738   4.702   0.744   3.854 -1.3400 -0.8544  1.5730
  827THF     O113739   3.715   3.655   5.291  0.5617 -0.0637  0.4150
  827THF     C213740   3.627   3.609   5.392  0.7081  0.3892  0.3055
  827THF     C313741   3.768   3.553   5.208 -0.0445  0.7430  0.2862
  827THF     H413742   3.555   3.684   5.425 -1.6741  0.4348 -4.1963
  827THF     H513743   3.692   3.582   5.476  0.6371 -0.6427  0.0422
  827THF     H613744   3.747   3.579   5.105 -1.5737  1.2641  0.6986
  827THF     H713745   3.875   3.532   5.210 -0.4731 -2.1114 -0.9337
  827THF     C813746   3.683   3.428   5.246 -0.1559 -0.5404  0.5852
  827THF     C913747   3.570   3.485   5.321 -0.1527  1.1901 -0.0514
  827THF    H1013748   3.758   3.382   5.311 -0.0221  1.5900  2.0472
  827THF    H1113749   3.667   3.359   5.163  1.2778 -2.6875  1.9735
  827THF    H1213750   3.479   3.502   5.262 -0.6025 -0.1165  0.2485
  827THF    H1313751   3.534   3.411   5.391 -0.1638  3.3242  2.3429
  828THF     O113752   4.197   5.154   4.786 -0.0961 -0.5564 -0.4361
  828THF     C213753   4.214   5.143   4.644 -0.5828  0.3191 -1.0808
  828THF     C313754   4.307   5.092   4.849 -0.6583  0.3997  0.2871
  828THF     H413755   4.262   5.237   4.619 -0.0644  0.4210  0.2388
  828THF     H513756   4.114   5.149   4.602 -0.8213  3.1554 -0.2542
  828THF     H613757   4.396   5.156   4.851  0.7215 -1.3812 -0.8050
  828THF     H713758   4.292   5.047   4.947 -0.6985 -1.6217 -0.5931
  828THF     C813759   4.338   4.972   4.755 -0.6951 -0.6331 -0.6354
  828THF     C913760   4.298   5.018   4.621  0.2153  0.7532 -0.1666
  828THF    H1013761   4.272   4.890   4.782 -0.6517 -0.2267  0.7418
  828THF    H1113762   4.435   4.922   4.758 -0.0811  0.4076 -1.9942
  828THF    H1213763   4.392   5.044   4.572  2.2917 -2.6329  1.6667
  828THF    H1313764   4.240   4.937   4.575  0.8778  0.8613 -1.2148
  829THF     O113765   5.380   2.002   2.116 -0.1440 -0.0134 -0.0406
  829THF     C213766   5.471   2.003   2.222  0.4721 -0.1952  0.8669
  829THF     C313767   5.450   1.983   2.001 -0.0573  0.2420 -0.5429
  829THF     H413768   5.415   2.003   2.315 -3.6839  3.0332 -1.2602
  829THF     H513769   5.527   2.097   2.219  0.2457 -0.0517  1.1023
  829THF     H613770   5.389   1.935   1.925 -0.9003  0.1609  0.1719
  829THF     H713771   5.478   2.079   1.956 -0.0819 -0.0270 -1.1317
  829THF     C813772   5.562   1.882   2.038 -0.8087 -0.1442  0.4429
  829THF     C913773   5.567   1.887   2.187  0.5988 -0.9743 -0.5948
  829THF    H1013774   5.657   1.924   2.005  0.3501 -2.4200  0.6928
  829THF    H1113775   5.555   1.781   1.999 -0.3055 -0.3794  0.9376
  829THF    H1213776   5.534   1.792   2.229 -0.5046 -0.3109  0.0893
  829THF    H1313777   5.667   1.912   2.222 -1.0518  1.3224  3.0580
  830THF     O113778   4.168   5.492   0.336 -0.3516  0.2892  0.3028
  830THF     C213779   4.220   5.511   0.210  0.6562 -0.1954  1.2479
  830THF     C313780   4.033   5.456   0.309 -0.2538 -0.4577 -0.6067
  830THF     H413781   4.328   5.525   0.208  0.4538  1.7346 -0.5652
  830THF     H513782   4.190   5.607   0.166  2.9691 -0.8245 -2.1083
  830THF     H613783   3.994   5.391   0.388 -1.2341  0.2787 -0.4609
  830THF     H713784   3.980   5.552   0.319 -1.8015 -1.5049  3.0265
  830THF     C813785   4.023   5.395   0.172  0.2179  0.4949  0.5924
  830THF     C913786   4.164   5.397   0.126 -0.3525  1.2067  0.4853
  830THF    H1013787   3.968   5.448   0.094  2.0691 -0.7636 -1.7012
  830THF    H1113788   3.985   5.292   0.170  2.1754 -0.2687 -0.1564
  830THF    H1213789   4.223   5.309   0.153  0.8057  1.7871 -0.0551
  830THF    H1313790   4.173   5.403   0.018 -1.3299 -2.2007  0.0971
  831THF     O113791   1.141   0.484   2.890  0.1646  1.5125  0.6838
  831THF     C213792   1.144   0.509   2.747  0.0128 -0.1690 -0.5154
  831THF     C313793   1.261   0.416   2.920 -0.3336 -0.3526 -0.0329
  831THF     H413794   1.076   0.587   2.714 -1.9945 -2.5214 -2.2564
  831THF     H513795   1.104   0.419   2.700  0.8588 -0.5424 -0.5432
  831THF     H613796   1.285   0.422   3.026  1.5323  1.1769 -0.4732
  831THF     H713797   1.256   0.312   2.889 -0.9429  0.0572 -1.3740
  831THF     C813798   1.368   0.476   2.836 -0.2078  0.6445  0.6568
  831THF     C913799   1.296   0.522   2.710 -0.3883  0.1439  0.3560
  831THF    H1013800   1.438   0.399   2.802 -0.3435  1.5673 -1.9197
  831THF    H1113801   1.417   0.561   2.883  1.6056 -0.1781  0.3543
  831THF    H1213802   1.329   0.622   2.680  1.8134 -0.6614 -0.1149
  831THF    H1313803   1.314   0.448   2.631  1.2125  0.3946  0.4541
  832THF     O113804   3.027   0.908   2.168  0.4226 -0.8310 -0.2799
  832THF     C213805   2.904   0.969   2.117 -0.4010  0.0679  0.5682
  832THF     C313806   2.983   0.799   2.255  0.2245  0.4383  0.0785
  832THF     H413807   2.865   0.912   2.033 -0.7407 -0.2804  0.9576
  832THF     H513808   2.924   1.073   2.090  0.1164  0.3553  1.9520
  832THF     H613809   2.974   0.708   2.195 -1.3887  0.8032 -0.2915
  832THF     H713810   3.059   0.778   2.330 -1.1358 -1.9238  0.9215
  832THF     C813811   2.855   0.842   2.317  0.0616 -0.2093  0.4117
  832THF     C913812   2.807   0.958   2.232 -0.2632 -0.2466  0.2152
  832THF    H1013813   2.874   0.879   2.418 -0.5494  1.3631 -0.0174
  832THF    H1113814   2.773   0.771   2.317  2.0626 -2.6501  0.6963
  832THF    H1213815   2.712   0.932   2.186  0.0863 -0.4647 -0.4105
  832THF    H1313816   2.812   1.059   2.271 -0.0404  1.2555 -3.3303
  833THF     O113817   3.857   2.118   4.601  0.0065  0.2096 -0.7478
  833THF     C213818   3.799   2.041   4.496  0.2529 -0.8775  0.3433
  833THF     C313819   3.824   2.053   4.723 -0.2560 -0.3413 -0.0410
  833THF     H413820   3.829   2.066   4.394 -0.7770 -3.0423 -0.5629
  833THF     H513821   3.692   2.064   4.499  0.1197 -0.9879 -1.7952
  833THF     H613822   3.921   2.044   4.772  0.0417  0.0619 -0.5441
  833THF     H713823   3.747   2.109   4.776 -0.7689  0.5564 -1.6720
  833THF     C813824   3.769   1.910   4.685 -0.2408 -0.3054 -0.0041
  833THF     C913825   3.812   1.898   4.542 -0.7921  0.3207 -0.3007
  833THF    H1013826   3.661   1.920   4.676 -0.4630 -1.7219  0.7918
  833THF    H1113827   3.797   1.822   4.743  2.4393 -0.3782 -1.2305
  833THF    H1213828   3.919   1.880   4.531 -0.7857 -1.4073  1.9207
  833THF    H1313829   3.760   1.829   4.476  0.9534 -0.0012 -1.4157
  834THF     O113830   0.760   3.609   0.866  0.0190 -0.5768  0.1354
  834THF     C213831   0.661   3.590   0.964  0.4877  0.1074  0.0417
  834THF     C313832   0.722   3.524   0.753 -0.1396 -0.4087 -0.1074
  834THF     H413833   0.577   3.658   0.950 -0.3996 -1.3635 -2.3668
  834THF     H513834   0.700   3.620   1.061  0.9551  2.3137 -0.7786
  834THF     H613835   0.693   3.584   0.667 -1.4313 -0.2012  0.4599
  834THF     H713836   0.806   3.460   0.726 -1.7779 -2.4835 -0.5198
  834THF     C813837   0.613   3.428   0.800  0.4735 -0.0045 -0.0042
  834THF     C913838   0.610   3.451   0.948  0.0676  0.1800  0.1189
  834THF    H1013839   0.635   3.322   0.784  2.2640  0.2539  0.5199
  834THF    H1113840   0.513   3.456   0.769  0.7496 -0.7258 -1.6642
  834THF    H1213841   0.505   3.438   0.972 -0.2868  0.2851 -1.2678
  834THF    H1313842   0.657   3.379   1.015 -3.0732 -0.4253  1.8684
  835THF     O113843   4.599   1.243   1.836  0.3574  0.2825  0.9232
  835THF     C213844   4.581   1.105   1.845 -0.3727  0.8795  0.4951
  835THF     C313845   4.545   1.304   1.951 -0.1681  0.5418 -0.2326
  835THF     H413846   4.667   1.058   1.891 -0.5418 -2.4280 -2.1443
  835THF     H513847   4.577   1.064   1.744 -1.4544  1.1767  0.4033
  835THF     H613848   4.621   1.346   2.017 -0.0916 -1.2515  0.8769
  835THF     H713849   4.480   1.388   1.929  1.0521  1.7243  0.4862
  835THF     C813850   4.457   1.198   2.025 -0.3891  0.1568  0.2677
  835THF     C913851   4.458   1.081   1.923  0.2223 -0.0381 -0.5043
  835THF    H1013852   4.349   1.205   2.038 -0.3351 -1.8074  2.3391
  835THF    H1113853   4.499   1.177   2.123 -1.3638  0.8498  0.8505
  835THF    H1213854   4.462   0.986   1.977  0.7456 -1.2328 -2.5417
  835THF    H1313855   4.375   1.073   1.853  1.2853  1.1872 -1.9595
  836THF     O113856   2.280   3.114   3.842  0.3133  0.2292  0.3269
  836THF     C213857   2.316   3.238   3.780  0.2436  0.2794 -0.2841
  836THF     C313858   2.272   3.000   3.757 -0.4963  0.3235  0.0326
  836THF     H413859   2.392   3.280   3.845 -0.3274 -1.0059  1.2644
  836THF     H513860   2.229   3.305   3.780 -0.3939 -0.4319  2.4719
  836THF     H613861   2.296   2.904   3.802  0.7150  1.1983  1.3550
  836THF     H713862   2.177   3.005   3.705 -0.2349 -2.1843 -0.7837
  836THF     C813863   2.380   3.036   3.654 -0.0083  0.0711  0.1805
  836THF     C913864   2.368   3.188   3.645 -0.2828  0.5902  0.1067
  836THF    H1013865   2.362   2.986   3.559  1.4762  0.8610 -0.5530
  836THF    H1113866   2.483   3.010   3.681  0.7237 -2.2723 -3.9300
  836THF    H1213867   2.458   3.241   3.616  1.6895 -2.6939 -0.2904
  836THF    H1313868   2.292   3.219   3.573 -0.3364  0.6230  0.1776
  837THF     O113869   1.390   1.048   3.259  0.0578  0.1588 -0.2871
  837THF     C213870   1.407   0.958   3.371 -0.1955 -0.2890 -0.2717
  837THF     C313871   1.428   0.975   3.155 -1.1172  0.9164  0.6706
  837THF     H413872   1.339   1.006   3.443  1.3855  3.3166 -0.9485
  837THF     H513873   1.512   0.954   3.399 -0.6009 -2.3149  1.2126
  837THF     H613874   1.371   1.002   3.066  0.1442  2.4726  0.2789
  837THF     H713875   1.537   0.979   3.148 -1.1207 -0.5436 -0.8037
  837THF     C813876   1.384   0.834   3.173 -0.5596 -0.1516  0.4558
  837THF     C913877   1.364   0.818   3.324  0.2557  0.4973 -0.2712
  837THF    H1013878   1.455   0.758   3.140  1.5716  2.1120 -0.4088
  837THF    H1113879   1.288   0.820   3.122  0.0598  1.4858 -1.2742
  837THF    H1213880   1.262   0.807   3.361  0.9089  0.0691  1.5405
  837THF    H1313881   1.431   0.740   3.359  1.5434  0.4373 -2.6609
  838THF     O113882   3.944   2.029   3.488  0.0176 -0.2288  0.3756
  838THF     C213883   3.807   2.005   3.507  0.5932  0.2042 -0.2389
  838THF     C313884   3.977   1.962   3.370 -0.3533 -0.3294  0.0273
  838THF     H413885   3.745   2.087   3.469 -2.9182 -2.9158 -1.9024
  838THF     H513886   3.784   1.999   3.614 -0.9387  0.6571 -0.5108
  838THF     H613887   3.948   2.026   3.286 -1.1674  0.2234  0.7161
  838THF     H713888   4.084   1.949   3.352 -0.1169 -0.1283  1.2134
  838THF     C813889   3.900   1.832   3.368  0.2527  0.1070 -0.0943
  838THF     C913890   3.774   1.872   3.439  0.2056 -0.2727  0.2065
  838THF    H1013891   3.950   1.753   3.424  0.0868  1.2740  1.7918
  838THF    H1113892   3.877   1.796   3.268 -1.2983  1.2133 -0.1642
  838THF    H1213893   3.682   1.883   3.381 -0.6293 -1.5984  1.2261
  838THF    H1313894   3.743   1.796   3.511  0.1379 -0.1612  0.2962
  839THF     O113895   1.067   0.468   5.502 -0.9389  0.1303 -0.2721
  839THF     C213896   1.153   0.355   5.476  0.2577  0.1282 -0.1983
  839THF     C313897   1.085   0.497   5.636  0.5109  0.1727 -0.1228
  839THF     H413898   1.254   0.392   5.488 -0.1935  0.9345  1.3717
  839THF     H513899   1.132   0.299   5.385 -1.0769 -2.3204  1.4949
  839THF     H613900   1.175   0.551   5.666  1.0465  1.1823 -3.1313
  839THF     H713901   0.998   0.553   5.670 -0.5430 -2.9724  2.9365
  839THF     C813902   1.088   0.366   5.715 -1.2765 -0.0867 -0.4090
  839THF     C913903   1.138   0.270   5.609 -0.2534 -0.1633  0.3368
  839THF    H1013904   0.986   0.334   5.740 -0.1158 -1.3874  3.3350
  839THF    H1113905   1.152   0.370   5.803 -0.6769  0.8660 -0.8781
  839THF    H1213906   1.227   0.220   5.645 -0.8629 -1.0249  0.6879
  839THF    H1313907   1.062   0.197   5.580 -0.3576 -0.1193  0.4979
  840THF     O113908   1.194   0.407   0.837  0.1083 -0.6226 -0.0240
  840THF     C213909   1.272   0.315   0.763  0.0634  0.2407  0.0359
  840THF     C313910   1.191   0.362   0.975  0.5768 -0.0964  0.6800
  840THF     H413911   1.378   0.332   0.780  0.2095 -0.1647 -0.4472
  840THF     H513912   1.264   0.323   0.655 -2.4771 -2.5970 -0.1047
  840THF     H613913   1.284   0.389   1.026  1.2416 -1.4736  0.2281
  840THF     H713914   1.111   0.404   1.037 -0.9227 -0.6975 -0.7679
  840THF     C813915   1.159   0.211   0.956 -0.1150 -0.3890 -0.4760
  840THF     C913916   1.228   0.180   0.824  0.3021  0.4038 -0.0930
  840THF    H1013917   1.054   0.184   0.965 -0.3196  0.5035 -0.1576
  840THF    H1113918   1.212   0.162   1.038 -0.4504 -1.3632 -0.8239
  840THF    H1213919   1.304   0.102   0.825 -0.8371 -0.7282  0.6525
  840THF    H1313920   1.141   0.145   0.768 -0.1985  0.4902  0.6279
  841THF     O113921   4.491   1.189   3.396 -0.1284 -0.1793 -0.3416
  841THF     C213922   4.529   1.131   3.278  0.7466 -0.0342 -0.5555
  841THF     C313923   4.367   1.132   3.435 -0.2683  0.5167 -0.1213
  841THF     H413924   4.634   1.156   3.263  0.6820  1.5256  1.2413
  841THF     H513925   4.465   1.166   3.196  0.5170 -0.3053 -0.4942
  841THF     H613926   4.360   1.133   3.544 -0.5846 -3.0802  0.0196
  841THF     H713927   4.290   1.189   3.382  1.1146  0.1799 -2.6193
  841THF     C813928   4.370   0.985   3.385 -0.2690 -0.8497  0.7270
  841THF     C913929   4.505   0.977   3.307 -0.2162  0.0198 -0.0177
  841THF    H1013930   4.279   0.973   3.327  0.4933 -2.8167 -0.1409
  841THF    H1113931   4.360   0.912   3.465 -1.7783  0.3718  1.7137
  841THF    H1213932   4.581   0.934   3.372 -1.1422 -2.0578 -0.2255
  841THF    H1313933   4.513   0.914   3.219 -2.1801  2.1383 -1.8756
  842THF     O113934   4.117   1.373   0.933 -0.2659  0.1366 -0.2626
  842THF     C213935   4.141   1.453   0.820  0.6276 -0.2243  0.0689
  842THF     C313936   4.105   1.451   1.055  0.5981 -0.2384 -0.6168
  842THF     H413937   4.102   1.406   0.730 -1.1176  2.0938 -0.5067
  842THF     H513938   4.249   1.455   0.804  0.6604 -0.4015  0.2724
  842THF     H613939   4.007   1.427   1.097  1.4529  2.0940  3.2506
  842THF     H713940   4.185   1.430   1.127  0.1704 -2.6664 -0.7536
  842THF     C813941   4.108   1.598   1.013  0.0479  0.0372  0.0197
  842THF     C913942   4.084   1.584   0.861 -0.5430  0.4899 -0.3186
  842THF    H1013943   4.211   1.632   1.030  0.1492 -1.3002  2.5814
  842THF    H1113944   4.047   1.671   1.066  0.0686  0.0548  0.0192
  842THF    H1213945   3.978   1.582   0.835 -0.4307  1.1957 -0.8774
  842THF    H1313946   4.120   1.666   0.799 -0.2430  0.5758 -0.0311
  843THF     O113947   1.515   5.247   1.027 -0.3198  0.0831 -0.0467
  843THF     C213948   1.387   5.262   1.100  0.2736  0.2463  0.3242
  843THF     C313949   1.497   5.185   0.903  0.0223  0.4473 -0.8596
  843THF     H413950   1.372   5.365   1.133  1.0673  0.0458  1.3667
  843THF     H513951   1.378   5.194   1.184 -2.2565 -0.5186 -0.4662
  843THF     H613952   1.571   5.196   0.823 -0.7371 -0.9610 -1.8009
  843THF     H713953   1.483   5.080   0.929 -1.9500 -0.0107 -3.4151
  843THF     C813954   1.362   5.250   0.869  0.3821 -0.0010  0.3074
  843THF     C913955   1.281   5.246   0.996  0.2022  0.2056  0.2799
  843THF    H1013956   1.318   5.191   0.788 -1.5209 -1.7460  2.4850
  843THF    H1113957   1.390   5.348   0.832  2.1494 -0.9130 -0.9256
  843THF    H1213958   1.202   5.320   1.010 -0.1441 -0.0466 -0.2810
  843THF    H1313959   1.239   5.146   1.010  1.0349 -0.4384 -1.4735
  844THF     O113960   3.923   5.384   0.869 -0.4552  0.4513 -0.1529
  844THF     C213961   3.937   5.432   0.736  0.1759 -0.0266 -0.1198
  844THF     C313962   4.049   5.384   0.933 -0.4210 -0.0400  0.1753
  844THF     H413963   3.949   5.539   0.724  1.1220 -0.1737 -0.6055
  844THF     H513964   3.858   5.389   0.674  1.1275 -1.5310 -0.3397
  844THF     H613965   4.075   5.480   0.978 -0.9402 -0.2945  1.0449
  844THF     H713966   4.053   5.308   1.011  0.3986 -0.0998  0.0784
  844THF     C813967   4.141   5.348   0.823  0.1448 -0.1789  0.6494
  844THF     C913968   4.067   5.365   0.690  0.5213 -0.1379  0.1398
  844THF    H1013969   4.166   5.243   0.839  0.3307 -0.4744 -1.3344
  844THF    H1113970   4.244   5.384   0.821  0.4937 -1.1127 -1.8066
  844THF    H1213971   4.123   5.417   0.612 -0.5494  1.2783  0.2755
  844THF    H1313972   4.036   5.268   0.652 -0.6118 -0.1482  1.0227
  845THF     O113973   4.868   1.398   0.874 -0.3377 -0.3451 -0.0422
  845THF     C213974   4.995   1.465   0.870 -0.0662 -0.0426 -0.2735
  845THF     C313975   4.777   1.502   0.850 -0.1270 -0.7431 -0.5338
  845THF     H413976   5.069   1.386   0.881  0.3648  0.6005  1.9126
  845THF     H513977   5.005   1.529   0.958 -0.4961 -0.5180  0.1226
  845THF     H613978   4.681   1.455   0.831  0.5043 -2.2647 -0.1218
  845THF     H713979   4.767   1.558   0.943 -0.8686 -1.2107 -0.3267
  845THF     C813980   4.846   1.581   0.732 -0.5402  1.1621  0.4224
  845THF     C913981   4.993   1.553   0.732  0.3907 -0.5584  0.3034
  845THF    H1013982   4.833   1.689   0.739  1.7301  1.7282 -2.0747
  845THF    H1113983   4.808   1.552   0.634 -0.4670  1.4358  0.3120
  845THF    H1213984   5.020   1.494   0.645  0.7909 -1.9820  1.3627
  845THF    H1313985   5.049   1.646   0.731 -0.8723  0.3032 -2.6155
  846THF     O113986   1.700   1.931   3.684  0.5304 -0.1796 -0.4908
  846THF     C213987   1.792   2.020   3.747 -0.9927  0.6347  1.0214
  846THF     C313988   1.639   2.014   3.583  0.0242 -0.1093  1.2296
  846THF     H413989   1.884   2.030   3.689  0.1705 -2.4002  2.1429
  846THF     H513990   1.816   1.978   3.845 -0.8878 -1.5466  0.1112
  846THF     H613991   1.695   2.006   3.490 -0.4034 -2.5200  1.1079
  846THF     H713992   1.535   1.983   3.566  0.3957 -0.9795  0.4418
  846THF     C813993   1.629   2.150   3.640  0.0101 -0.7181 -0.5056
  846THF     C913994   1.716   2.153   3.768 -0.5105 -0.2407 -0.5227
  846THF    H1013995   1.527   2.177   3.663  1.2133  1.5697  2.9101
  846THF    H1113996   1.662   2.224   3.567  2.4626 -0.3145  0.9095
  846THF    H1213997   1.782   2.240   3.764 -0.0081 -0.6596 -1.8423
  846THF    H1313998   1.652   2.158   3.856 -0.1409  0.4222 -0.2874
  847THF     O113999   0.074   4.961   0.560 -0.1669 -0.9780 -0.1901
  847THF     C214000   0.098   4.924   0.695 -1.0925 -0.1862 -0.0201
  847THF     C314001   0.071   4.847   0.478 -0.3059 -0.0337 -0.8649
  847THF     H414002   0.013   4.867   0.734 -1.5251 -0.5055 -1.3835
  847THF     H514003   0.104   5.014   0.757 -0.3632 -1.2005  1.4480
  847THF     H614004  -0.024   4.793   0.479 -0.7933  0.6272  2.7347
  847THF     H714005   0.097   4.879   0.377  0.0342 -0.6423 -0.9715
  847THF     C814006   0.185   4.769   0.547 -0.4557 -0.5550  0.4874
  847THF     C914007   0.220   4.840   0.675 -0.2961  0.2188 -0.0434
  847THF    H1014008   0.269   4.742   0.483 -0.5815 -0.7177  0.3894
  847THF    H1114009   0.137   4.676   0.578  0.6105 -0.6849  1.8539
  847THF    H1214010   0.232   4.775   0.761 -2.4900  0.1167  0.2521
  847THF    H1314011   0.316   4.889   0.659  0.1893 -0.7032 -0.0581
  848THF     O114012   0.969   3.856   4.036  0.7041 -0.3844  0.4502
  848THF     C214013   1.052   3.767   4.114  0.2008  0.1043 -0.1954
  848THF     C314014   1.032   3.869   3.906 -0.0771  0.8013  0.3260
  848THF     H414015   1.023   3.665   4.089  0.3452  0.4040 -1.7315
  848THF     H514016   1.046   3.777   4.222  2.5364  0.1724 -0.0191
  848THF     H614017   1.007   3.778   3.852 -0.5836  0.9105  0.3680
  848THF     H714018   0.993   3.951   3.846  0.6097  0.9181  0.0230
  848THF     C814019   1.182   3.873   3.936  0.1754  0.0051  0.6811
  848THF     C914020   1.191   3.803   4.072  0.2774 -0.0877  0.9159
  848THF    H1014021   1.228   3.969   3.957  0.3596 -0.2062  1.2570
  848THF    H1114022   1.233   3.820   3.854 -2.2242 -2.2655  0.5232
  848THF    H1214023   1.250   3.711   4.072 -1.7554 -1.5293  3.1169
  848THF    H1314024   1.237   3.869   4.145  1.3863  0.5345 -0.3125
  849THF     O114025   1.106   4.132   0.206  0.3246  0.5254  0.2181
  849THF     C214026   1.143   4.105   0.071 -0.5691  0.5043 -0.5823
  849THF     C314027   1.070   4.011   0.272  0.1097 -0.3877  0.4462
  849THF     H414028   1.250   4.087   0.057 -0.8223 -0.8197 -0.8993
  849THF     H514029   1.103   4.183   0.006  0.3428  2.7900  1.4344
  849THF     H614030   1.158   3.952   0.297  2.3297  2.6676  0.4066
  849THF     H714031   1.016   4.026   0.366  1.9249 -0.0857  1.4925
  849THF     C814032   0.991   3.943   0.163 -0.1668  0.0901  0.0472
  849THF     C914033   1.072   3.975   0.036  0.1540  0.0404 -1.4131
  849THF    H1014034   0.890   3.983   0.155 -0.7969 -1.0279  1.7719
  849THF    H1114035   0.992   3.834   0.166  0.4526  0.0483 -1.0728
  849THF    H1214036   1.149   3.903   0.008  1.6339  1.1979 -0.4915
  849THF    H1314037   1.006   3.992  -0.049  1.2472  0.1572 -2.2560
  850THF     O114038   5.488   3.490   0.108 -0.4326  0.2104 -0.1338
  850THF     C214039   5.490   3.421  -0.018 -0.3167  0.1891  0.4099
  850THF     C314040   5.351   3.509   0.149  0.3325  1.0580  0.0666
  850THF     H414041   5.535   3.324   0.001  0.4254  0.3901 -0.2755
  850THF     H514042   5.556   3.481  -0.081  0.4799 -0.2236  0.8380
  850THF     H614043   5.345   3.484   0.255  1.1902  1.5617  0.2439
  850THF     H714044   5.329   3.614   0.132  0.8859  0.9977 -1.0993
  850THF     C814045   5.269   3.414   0.054 -0.0782  0.0653  0.0786
  850THF     C914046   5.346   3.414  -0.077 -0.4964 -0.3256 -0.1725
  850THF    H1014047   5.167   3.450   0.038  0.6526  1.5957 -1.4585
  850THF    H1114048   5.278   3.318   0.104  4.5587  0.5817  0.6724
  850THF    H1214049   5.331   3.341  -0.157  0.9779 -0.8387 -0.0212
  850THF    H1314050   5.333   3.510  -0.127 -0.8490  0.6596  1.7444
  851THF     O114051   4.246   1.939   3.719  0.2129 -0.4260 -0.4997
  851THF     C214052   4.189   1.810   3.765 -0.3742  1.1307 -0.2073
  851THF     C314053   4.385   1.937   3.738  0.1483  0.4712  0.0484
  851THF     H414054   4.105   1.778   3.704 -1.0927  1.1571  0.7423
  851THF     H514055   4.151   1.823   3.866  2.2665 -1.7297  1.3062
  851THF     H614056   4.426   1.949   3.638 -0.8614 -0.8982 -0.5701
  851THF     H714057   4.415   2.009   3.814 -1.0967  0.0773  0.9423
  851THF     C814058   4.425   1.803   3.794 -0.1846  0.1905 -0.1774
  851THF     C914059   4.305   1.705   3.760  0.0284 -0.1110  0.1323
  851THF    H1014060   4.438   1.819   3.902  1.2093 -1.3794 -0.0691
  851THF    H1114061   4.517   1.757   3.757  0.7141  1.1210  0.8150
  851THF    H1214062   4.313   1.660   3.661 -3.1049 -1.0704  0.2221
  851THF    H1314063   4.282   1.622   3.826  0.1656 -1.2331 -1.1815
  852THF     O114064   2.340   2.975   0.115 -0.1103 -0.5923  0.4365
  852THF     C214065   2.234   2.991   0.203  0.0666  0.5167  0.5313
  852THF     C314066   2.411   2.863   0.171  0.0376 -0.2683  0.5185
  852THF     H414067   2.160   2.916   0.175  0.3069  0.5475 -0.2230
  852THF     H514068   2.200   3.090   0.175 -0.2978  0.0164 -0.9246
  852THF     H614069   2.362   2.768   0.150 -1.9100  0.7143  0.3478
  852THF     H714070   2.511   2.848   0.133 -0.2333  1.2859 -0.9192
  852THF     C814071   2.411   2.900   0.317  0.0070  0.0997 -0.1403
  852THF     C914072   2.285   2.975   0.344 -0.1164 -0.2787 -0.0447
  852THF    H1014073   2.495   2.959   0.355 -2.9661  3.2872  2.2034
  852THF    H1114074   2.395   2.808   0.374  1.8201 -0.0056  0.2473
  852THF    H1214075   2.209   2.932   0.410 -0.3526  1.5811  0.9577
  852THF    H1314076   2.297   3.074   0.388 -0.0662 -0.2780 -0.0597
  853THF     O114077   0.722   4.976   4.891  0.2642  0.0264 -0.0905
  853THF     C214078   0.799   4.866   4.836 -0.5234 -0.0521  0.0698
  853THF     C314079   0.592   4.927   4.927  0.0056 -0.1037  0.2622
  853THF     H414080   0.891   4.868   4.894 -0.7794 -2.8206  0.6771
  853THF     H514081   0.827   4.869   4.730 -1.2064  0.2920 -0.1081
  853THF     H614082   0.600   4.896   5.031  0.4736 -1.6379 -0.2015
  853THF     H714083   0.526   5.011   4.911 -0.5047 -1.0966 -3.9534
  853THF     C814084   0.579   4.797   4.853  0.8547 -0.8980 -0.3871
  853THF     C914085   0.720   4.740   4.870 -0.4818 -0.1323 -0.4902
  853THF    H1014086   0.567   4.804   4.745  0.8578  0.6900 -0.2975
  853THF    H1114087   0.501   4.732   4.893 -1.9821  2.8439  0.6565
  853THF    H1214088   0.735   4.712   4.975 -0.9097  0.7480 -0.1796
  853THF    H1314089   0.765   4.664   4.808  2.5019  0.7246  0.4506
  854THF     O114090   5.045   1.781   2.443  0.1056  0.3648  0.1761
  854THF     C214091   5.129   1.695   2.360  0.1985  0.5313 -0.2498
  854THF     C314092   5.091   1.910   2.408 -0.0706 -0.3600 -0.3103
  854THF     H414093   5.083   1.597   2.371 -0.0435  0.8242  1.9018
  854THF     H514094   5.229   1.688   2.403 -0.4704  0.5085  1.4053
  854THF     H614095   5.022   1.990   2.436  0.9518  0.2311  0.5734
  854THF     H714096   5.185   1.926   2.460  0.0864 -1.1183 -0.3494
  854THF     C814097   5.096   1.903   2.253 -0.2411  0.2813  0.0808
  854THF     C914098   5.110   1.755   2.222 -0.9910 -0.8651 -0.8346
  854THF    H1014099   5.178   1.969   2.222 -0.1842  0.3671  0.4171
  854THF    H1114100   5.004   1.946   2.214 -0.8152 -1.0409 -0.0504
  854THF    H1214101   5.020   1.730   2.167 -2.0943  0.1985  0.4218
  854THF    H1314102   5.196   1.745   2.156 -0.0342  2.4952 -0.2806
  855THF     O114103   2.565   4.276   2.645  0.0448 -0.6988  0.5828
  855THF     C214104   2.446   4.193   2.656 -0.3239  0.8376  0.1715
  855THF     C314105   2.677   4.197   2.618  0.4386  0.5368 -0.0788
  855THF     H414106   2.357   4.255   2.658 -1.7599 -1.0524 -1.5659
  855THF     H514107   2.436   4.134   2.747 -0.6214  1.7829  0.7659
  855THF     H614108   2.751   4.258   2.566 -0.3099 -1.5774 -4.0714
  855THF     H714109   2.729   4.155   2.704 -0.1339 -1.3685 -0.6100
  855THF     C814110   2.617   4.084   2.531 -0.2844 -0.1629  0.0892
  855THF     C914111   2.468   4.108   2.538 -0.0181 -0.2639  0.2949
  855THF    H1014112   2.628   3.987   2.578 -1.9325 -1.3324 -1.8201
  855THF    H1114113   2.661   4.088   2.432  1.0778  0.6482  0.6884
  855THF    H1214114   2.435   4.170   2.455  3.5932  1.9890  0.3232
  855THF    H1314115   2.406   4.018   2.536  0.8615 -0.9748  2.2230
  856THF     O114116   0.302   1.324   3.505  0.1917 -0.4674  0.2604
  856THF     C214117   0.399   1.420   3.560  0.3493  0.1159 -0.3245
  856THF     C314118   0.239   1.267   3.621  0.1336  1.1639  0.0726
  856THF     H414119   0.422   1.507   3.498  0.6731  1.7447  1.9428
  856THF     H514120   0.493   1.366   3.566  0.4045  0.2550  0.0781
  856THF     H614121   0.143   1.227   3.587 -0.4020  2.3481  0.1338
  856THF     H714122   0.297   1.189   3.671 -1.1010 -0.7230 -1.2790
  856THF     C814123   0.215   1.388   3.711  0.3556 -0.1464 -0.2753
  856THF     C914124   0.339   1.464   3.696 -0.9012 -0.4620  0.1557
  856THF    H1014125   0.203   1.343   3.809  0.0702  0.0179 -0.2354
  856THF    H1114126   0.128   1.440   3.671  0.3764  0.5210  0.5219
  856THF    H1214127   0.318   1.571   3.684  2.2949  0.1807 -0.5863
  856THF    H1314128   0.410   1.453   3.778  0.4322 -0.2151 -0.9261
  857THF     O114129   1.103   4.432   5.167  0.1109  0.1427  0.0293
  857THF     C214130   1.019   4.316   5.199 -0.4030 -0.7284  0.8932
  857THF     C314131   1.239   4.408   5.209 -0.4260  0.1824  0.3535
  857THF     H414132   0.921   4.305   5.152  0.4194 -1.5830 -0.6842
  857THF     H514133   0.987   4.329   5.303  0.6279  1.1829  1.0083
  857THF     H614134   1.309   4.442   5.132 -1.0634  0.8267  0.0553
  857THF     H714135   1.269   4.462   5.299  0.2180 -0.8352  0.7727
  857THF     C814136   1.246   4.259   5.229 -0.0789  0.2036 -0.1751
  857THF     C914137   1.113   4.203   5.176 -0.1637  0.1433 -0.3541
  857THF    H1014138   1.263   4.255   5.336  0.7945 -2.6450 -0.3456
  857THF    H1114139   1.334   4.212   5.183 -0.3060 -0.6862  0.2841
  857THF    H1214140   1.113   4.180   5.069  0.4376 -0.6912 -0.1821
  857THF    H1314141   1.078   4.113   5.226 -0.9597  1.0676  0.8087
  858THF     O114142   1.120   2.942   2.230  0.2178  0.4461 -0.6445
  858THF     C214143   1.173   2.846   2.326 -0.0126  0.0560  0.0827
  858THF     C314144   1.006   2.897   2.163 -0.3069 -1.4538 -0.1169
  858THF     H414145   1.179   2.879   2.430 -1.1509 -2.1105  0.9076
  858THF     H514146   1.272   2.810   2.298  0.4058 -0.8650  2.4771
  858THF     H614147   0.912   2.948   2.186  0.0983 -1.3982  1.5094
  858THF     H714148   1.029   2.919   2.059 -0.1998 -1.4136 -0.0842
  858THF     C814149   0.981   2.754   2.193  0.7020  0.1531  0.0667
  858THF     C914150   1.058   2.736   2.321  0.6071  0.2315  0.0668
  858THF    H1014151   1.024   2.689   2.117 -1.0032 -1.3839  0.3480
  858THF    H1114152   0.877   2.724   2.201  1.0319 -0.8068  1.0740
  858THF    H1214153   0.976   2.743   2.392  0.3850  2.0496 -0.3113
  858THF    H1314154   1.108   2.639   2.322 -0.7441 -0.4751  0.5170
  859THF     O114155   3.186   2.421   2.589  0.0484  0.2325 -0.1314
  859THF     C214156   3.318   2.429   2.644  0.5258  0.0888  0.3465
  859THF     C314157   3.169   2.306   2.511  0.5241  0.6864  0.2218
  859THF     H414158   3.318   2.371   2.736  0.1823  1.3175  1.1385
  859THF     H514159   3.347   2.530   2.672 -1.5571  0.4147  1.5040
  859THF     H614160   3.153   2.222   2.578  0.0274 -1.0012 -1.8933
  859THF     H714161   3.090   2.308   2.437  1.4900  2.5451 -0.8303
  859THF     C814162   3.298   2.295   2.437 -1.2895 -0.1345  0.0238
  859THF     C914163   3.401   2.358   2.539 -0.0005 -0.5748  0.2406
  859THF    H1014164   3.291   2.355   2.346 -0.4505 -0.4629 -0.2695
  859THF    H1114165   3.325   2.195   2.404  0.2254  0.7520 -1.6226
  859THF    H1214166   3.472   2.285   2.579  1.0419  1.1731  1.7883
  859THF    H1314167   3.459   2.430   2.481  1.4609 -0.6532  1.5224
  860THF     O114168   5.213   0.156   4.888  0.3991  0.2340 -0.1540
  860THF     C214169   5.071   0.129   4.917  0.7619 -0.5084 -0.2296
  860THF     C314170   5.226   0.294   4.895  0.1215  0.6676 -0.1733
  860THF     H414171   5.054   0.022   4.928 -0.4402 -0.3530 -0.5389
  860THF     H514172   5.014   0.165   4.832  1.1857 -1.0221 -0.7339
  860THF     H614173   5.330   0.326   4.899  0.3793 -0.1202 -0.5278
  860THF     H714174   5.169   0.342   4.815 -0.9398  3.5836  2.1386
  860THF     C814175   5.159   0.320   5.028  0.0234  0.2330 -0.3597
  860THF     C914176   5.049   0.211   5.042 -0.5069  0.5440 -0.2632
  860THF    H1014177   5.120   0.420   5.043 -3.1036 -1.1041  1.5670
  860THF    H1114178   5.236   0.309   5.103  0.9913  0.4415 -1.2998
  860THF    H1214179   5.045   0.153   5.134 -1.7037  1.0305  0.0102
  860THF    H1314180   4.950   0.255   5.040  0.2891  2.5730  1.5487
  861THF     O114181   1.939   4.242   1.797  0.6193 -0.2481 -0.1475
  861THF     C214182   1.968   4.383   1.785 -0.4046  0.0527  0.1108
  861THF     C314183   1.820   4.222   1.882 -0.3669 -0.7276 -0.6144
  861THF     H414184   1.940   4.430   1.691  1.1780  2.2609  0.6734
  861THF     H514185   2.074   4.406   1.797 -0.4385  0.2677  0.0063
  861THF     H614186   1.740   4.159   1.841 -3.7710  1.5511  1.8905
  861THF     H714187   1.854   4.170   1.972  0.5100 -0.5323 -0.8287
  861THF     C814188   1.764   4.361   1.904  0.3336  0.0197 -0.4021
  861THF     C914189   1.886   4.451   1.884 -0.7159 -0.1482 -0.1371
  861THF    H1014190   1.731   4.380   2.006 -2.5705 -1.9476 -0.8607
  861THF    H1114191   1.690   4.384   1.828  1.3164  0.1348 -1.3448
  861THF    H1214192   1.857   4.554   1.861 -2.5230 -0.2033  1.5790
  861THF    H1314193   1.949   4.458   1.972  3.4846 -1.6071 -2.7212
  862THF     O114194   3.461   0.037   4.734  0.4812  0.6751 -0.8484
  862THF     C214195   3.390   0.159   4.742 -0.0490  0.0990  0.7861
  862THF     C314196   3.383  -0.056   4.658 -0.7458 -0.5981 -0.4743
  862THF     H414197   3.407   0.211   4.648  0.9718  0.4476  1.1564
  862THF     H514198   3.410   0.226   4.825  2.4378 -1.8263  1.8536
  862THF     H614199   3.398  -0.044   4.550  0.3293 -1.5553 -0.4540
  862THF     H714200   3.422  -0.156   4.678 -1.2813 -0.3407  2.1726
  862THF     C814201   3.241  -0.034   4.697  0.2842 -0.3498 -0.6196
  862THF     C914202   3.250   0.102   4.759 -0.0315 -0.0980  0.2025
  862THF    H1014203   3.201  -0.095   4.778 -0.1448  0.7171 -0.0046
  862THF    H1114204   3.171  -0.038   4.613 -0.0003  1.6188 -0.5237
  862THF    H1214205   3.166   0.164   4.728 -0.7059 -0.7906  0.6213
  862THF    H1314206   3.244   0.091   4.867 -1.5768 -0.6553  0.0902
  863THF     O114207   0.622   3.231   1.498 -0.5526  0.6769  0.1266
  863THF     C214208   0.665   3.365   1.502  0.2069  0.2115 -0.1650
  863THF     C314209   0.664   3.166   1.379 -0.0218  0.1444 -0.3180
  863THF     H414210   0.726   3.383   1.590 -0.3829  0.9949  0.0964
  863THF     H514211   0.579   3.430   1.484 -1.5484 -1.6535  1.1257
  863THF     H614212   0.675   3.060   1.402 -2.4625  0.2205  1.6827
  863THF     H714213   0.596   3.180   1.295 -0.5593 -3.5934 -0.6639
  863THF     C814214   0.793   3.223   1.343  0.0159 -0.6026  0.8020
  863THF     C914215   0.770   3.375   1.384 -0.0807  0.1801 -0.2678
  863THF    H1014216   0.813   3.204   1.238  0.6946 -2.5918  1.2538
  863THF    H1114217   0.877   3.176   1.393  1.4080 -0.0098 -0.8932
  863THF    H1214218   0.865   3.422   1.411 -0.3268 -0.2052  1.3534
  863THF    H1314219   0.727   3.433   1.302  4.3723  0.7610 -2.5127
  864THF     O114220   3.865   4.954   0.130  0.4884 -0.3526  0.3445
  864THF     C214221   3.806   4.840   0.065 -0.5444 -0.7046  0.0163
  864THF     C314222   3.754   5.036   0.165  0.3665  0.1929 -0.1952
  864THF     H414223   3.772   4.776   0.147 -0.6242  1.3064  1.6640
  864THF     H514224   3.883   4.788   0.009  0.4598  1.2811 -0.5495
  864THF     H614225   3.699   4.999   0.252  0.6394  2.0710  0.8361
  864THF     H714226   3.775   5.142   0.178  2.1934 -0.3816  2.3784
  864THF     C814227   3.660   5.019   0.043  0.9928 -0.3781  0.4298
  864THF     C914228   3.681   4.885  -0.011  0.6256 -0.0663 -0.0389
  864THF    H1014229   3.691   5.093  -0.031 -1.4552  0.4197  0.1235
  864THF    H1114230   3.554   5.038   0.054  0.9963  0.5768 -0.9101
  864THF    H1214231   3.594   4.825   0.015  0.2390  1.0091  1.2850
  864THF    H1314232   3.700   4.886  -0.118  0.5049  0.5346 -0.0614
  865THF     O114233   4.944   0.713   2.622  0.0391 -0.1264  0.4721
  865THF     C214234   4.966   0.826   2.704  0.5306  0.5908  0.4289
  865THF     C314235   4.996   0.595   2.683  0.0126 -0.2463 -0.1089
  865THF     H414236   4.883   0.897   2.703  0.1742  0.1862 -0.5700
  865THF     H514237   5.050   0.883   2.666  2.0658  1.2371  4.3384
  865THF     H614238   4.942   0.510   2.640  0.4933 -0.8259  0.4156
  865THF     H714239   5.102   0.585   2.660  0.4370  1.5834  0.8480
  865THF     C814240   4.964   0.630   2.826  0.1190  0.3588 -0.2583
  865THF     C914241   4.997   0.775   2.841  0.3227 -0.7842 -0.0514
  865THF    H1014242   5.011   0.570   2.903 -1.3604 -0.3171  0.1547
  865THF    H1114243   4.857   0.612   2.839  0.3916  0.6324  3.5023
  865THF    H1214244   4.939   0.829   2.915  2.6260  1.9735 -0.0905
  865THF    H1314245   5.098   0.805   2.870  0.1326 -0.1675 -0.0265
  866THF     O114246   2.713   0.520   1.903  0.3287  0.4684  0.4549
  866THF     C214247   2.735   0.382   1.936 -0.1368 -0.2042 -0.3696
  866THF     C314248   2.836   0.589   1.926  0.1416 -0.3088  0.4037
  866THF     H414249   2.671   0.303   1.896  0.4066 -0.0009 -1.6844
  866THF     H514250   2.733   0.384   2.045 -1.6692 -1.0581 -0.3500
  866THF     H614251   2.848   0.657   1.842  0.8411 -0.7058  0.1737
  866THF     H714252   2.830   0.665   2.004 -0.6000  1.0620 -0.9382
  866THF     C814253   2.954   0.491   1.921  0.6047 -0.2325  0.1174
  866THF     C914254   2.882   0.353   1.900  0.0655  0.0778 -0.2795
  866THF    H1014255   3.001   0.500   2.019 -1.1201 -0.3618  0.9945
  866THF    H1114256   3.017   0.517   1.836  1.4488 -1.6451  0.2751
  866THF    H1214257   2.887   0.306   1.802  1.3293  1.6100 -1.0013
  866THF    H1314258   2.917   0.287   1.980 -0.7616  0.3931  0.3623
  867THF     O114259   3.502   5.118   0.696  0.4175  0.2348 -0.3072
  867THF     C214260   3.562   5.185   0.810 -0.7655  0.4967  0.4849
  867THF     C314261   3.371   5.085   0.735  0.4184 -0.0541  0.3901
  867THF     H414262   3.624   5.267   0.773  1.2409 -2.0867 -2.4797
  867THF     H514263   3.618   5.111   0.867  0.0040  0.2041 -0.6084
  867THF     H614264   3.296   5.091   0.656  0.0203  0.7637  0.8242
  867THF     H714265   3.368   4.986   0.780 -2.4144 -0.1684  0.0991
  867THF     C814266   3.326   5.199   0.826 -0.6236  0.5532 -0.4418
  867THF     C914267   3.450   5.244   0.894 -0.1319 -0.0669  0.6432
  867THF    H1014268   3.245   5.191   0.898  1.2772  1.6398  1.9892
  867THF    H1114269   3.295   5.290   0.775 -1.7271  2.5164  3.3286
  867THF    H1214270   3.474   5.349   0.911  2.3955 -0.5922  0.8569
  867THF    H1314271   3.454   5.186   0.986  0.3888 -1.8108 -0.4351
  868THF     O114272   3.181   3.427   5.325 -0.1168 -0.5681 -0.0020
  868THF     C214273   3.039   3.404   5.338 -0.2778 -0.5086  0.5999
  868THF     C314274   3.239   3.308   5.259 -0.0391  0.0539 -0.6509
  868THF     H414275   2.995   3.425   5.241  2.3064 -2.7234 -1.2317
  868THF     H514276   2.995   3.467   5.414  0.0284 -0.8562  1.0719
  868THF     H614277   3.251   3.342   5.156 -2.7830  0.2559 -0.9809
  868THF     H714278   3.336   3.290   5.305 -0.8346 -0.0656  1.0380
  868THF     C814279   3.137   3.196   5.292  0.0083 -0.0046 -0.3509
  868THF     C914280   3.025   3.259   5.377  0.0786  0.3153 -0.5698
  868THF    H1014281   3.183   3.103   5.325  1.7203  1.0446  0.3525
  868THF    H1114282   3.088   3.168   5.198 -0.6460 -1.4550  0.3887
  868THF    H1214283   2.931   3.213   5.348 -0.9100 -0.0642  2.9041
  868THF    H1314284   3.041   3.238   5.482 -0.0925  0.1180 -0.5839
  869THF     O114285   0.399   5.009   3.052  0.0060 -0.0053  0.1054
  869THF     C214286   0.543   5.035   3.066 -0.0459 -0.3525 -0.2195
  869THF     C314287   0.344   4.994   3.184  0.2388  0.6730  0.0204
  869THF     H414288   0.555   5.140   3.089 -2.0078 -0.2037  0.3613
  869THF     H514289   0.608   5.009   2.983  0.8729 -0.2089  0.4388
  869THF     H614290   0.285   5.080   3.213  0.8470  1.7947 -1.9016
  869THF     H714291   0.273   4.911   3.182  0.0322  0.8320  0.6223
  869THF     C814292   0.462   4.969   3.278  1.0130 -0.3990 -0.3870
  869THF     C914293   0.578   4.952   3.190 -0.2095 -0.4309 -0.7271
  869THF    H1014294   0.448   4.879   3.337 -0.3480 -0.1046 -0.2307
  869THF    H1114295   0.483   5.042   3.357  1.2673 -0.3026 -0.5430
  869THF    H1214296   0.673   4.982   3.233 -0.1884  0.4398 -1.3367
  869THF    H1314297   0.587   4.845   3.171  1.0201 -0.4596 -0.0326
  870THF     O114298   0.521   3.089   5.473 -0.3021 -0.3164  0.0967
  870THF     C214299   0.492   2.990   5.381 -0.9178 -0.0421  0.1503
  870THF     C314300   0.498   3.216   5.410  0.3270 -0.1556 -1.1067
  870THF     H414301   0.404   2.936   5.416 -0.0137 -1.3283  0.4839
  870THF     H514302   0.581   2.931   5.359  0.7278  1.3679  2.5536
  870THF     H614303   0.457   3.285   5.485  2.6684  1.2056 -0.9782
  870THF     H714304   0.597   3.252   5.383  0.6472  0.4946  0.7419
  870THF     C814305   0.399   3.186   5.305 -0.2197  0.0474  0.0663
  870THF     C914306   0.458   3.061   5.255 -0.5125  0.2088 -0.0680
  870THF    H1014307   0.399   3.255   5.221 -0.5746 -1.5219 -1.2821
  870THF    H1114308   0.295   3.185   5.338 -0.2094  0.7098  0.1411
  870THF    H1214309   0.390   3.006   5.190  0.2094  0.2902 -0.9138
  870THF    H1314310   0.547   3.080   5.195  0.4510  0.3138  1.3474
  871THF     O114311   4.615   3.328   2.027  0.4477 -0.0609  0.0368
  871THF     C214312   4.584   3.199   2.075  0.6808  0.4025 -0.6279
  871THF     C314313   4.564   3.343   1.902  0.4782  0.5471 -0.1214
  871THF     H414314   4.478   3.194   2.098  1.0268 -0.4480  0.8622
  871THF     H514315   4.640   3.188   2.168  0.9290  2.1505 -0.5212
  871THF     H614316   4.456   3.351   1.909  0.3902 -0.6673  0.1149
  871THF     H714317   4.614   3.428   1.856 -2.6895  1.4909 -2.1443
  871THF     C814318   4.593   3.208   1.836 -0.3555  0.3112 -0.3318
  871THF     C914319   4.616   3.115   1.956  0.2362  0.0106 -0.2802
  871THF    H1014320   4.680   3.212   1.770 -0.6419  0.4292 -0.7008
  871THF    H1114321   4.513   3.180   1.768  0.0898  1.1953 -1.2586
  871THF    H1214322   4.561   3.021   1.965 -1.0831  0.8095  0.1684
  871THF    H1314323   4.719   3.080   1.964  0.2390 -0.3537 -1.7016
  872THF     O114324   4.144   2.439   4.800 -0.2197 -0.1256 -0.0775
  872THF     C214325   4.061   2.325   4.780  0.6064 -1.2302 -0.6580
  872THF     C314326   4.110   2.509   4.923 -0.4167 -0.0684 -0.4725
  872THF     H414327   4.119   2.251   4.724 -0.9969 -1.3846 -2.2057
  872THF     H514328   3.968   2.349   4.728  0.4787 -0.5122 -0.1248
  872THF     H614329   4.197   2.544   4.979  0.0141 -1.0725 -0.4966
  872THF     H714330   4.052   2.599   4.902 -0.7552 -0.1363  0.1633
  872THF     C814331   4.025   2.412   5.001  0.2372  0.7160  0.0524
  872THF     C914332   4.031   2.277   4.924 -0.0733 -0.3738  0.6577
  872THF    H1014333   3.925   2.446   5.024  0.6475  1.1179  1.3207
  872THF    H1114334   4.067   2.415   5.102 -0.3509  2.0672  0.2825
  872THF    H1214335   4.112   2.214   4.961  1.3623  1.7280  1.2301
  872THF    H1314336   3.935   2.227   4.937 -2.0904  3.7207  3.6908
  873THF     O114337   3.635   3.883   1.776  0.1455  0.2597 -0.4791
  873THF     C214338   3.747   3.912   1.855 -0.2118 -0.5979  0.7004
  873THF     C314339   3.626   3.977   1.671 -0.2501  0.4715 -0.0774
  873THF     H414340   3.771   3.831   1.925  1.2827  0.4577  1.4782
  873THF     H514341   3.750   4.003   1.915  0.9905  1.4059 -2.1688
  873THF     H614342   3.573   3.950   1.580  0.0915  3.3666 -1.2727
  873THF     H714343   3.571   4.062   1.714  0.7412  1.3236 -0.4358
  873THF     C814344   3.775   3.998   1.645  0.0971 -0.4439 -0.4918
  873THF     C914345   3.856   3.937   1.751 -0.0534 -0.6168  0.1366
  873THF    H1014346   3.789   4.104   1.622 -0.5529 -0.7019 -2.2750
  873THF    H1114347   3.796   3.942   1.554 -1.2301  0.7442 -1.5833
  873THF    H1214348   3.909   3.852   1.708  2.4767  1.2959 -0.7662
  873THF    H1314349   3.933   4.004   1.789 -0.9154 -0.0275  0.8620
  874THF     O114350   3.102   0.508   4.859 -0.5124  0.8833 -0.2548
  874THF     C214351   2.996   0.543   4.771 -0.2547 -0.0505  0.5624
  874THF     C314352   3.218   0.540   4.787  0.5740  0.4946  0.4117
  874THF     H414353   2.901   0.563   4.821 -1.0036  1.2441 -1.2827
  874THF     H514354   2.997   0.465   4.696 -2.6474 -0.5230  0.9602
  874THF     H614355   3.303   0.530   4.854 -0.1457  0.2672  1.3114
  874THF     H714356   3.240   0.468   4.708  1.4979  2.9827 -1.7572
  874THF     C814357   3.191   0.673   4.711 -0.1446 -0.0062  0.0320
  874THF     C914358   3.039   0.673   4.712  0.5634 -0.1139  0.0201
  874THF    H1014359   3.241   0.681   4.615 -2.1023  1.8102 -0.9064
  874THF    H1114360   3.227   0.756   4.772  0.2298 -1.1088  1.3604
  874THF    H1214361   3.003   0.760   4.767 -0.8897 -0.3848 -0.4591
  874THF    H1314362   2.983   0.683   4.619 -2.0811 -3.3929  1.0628
  875THF     O114363   2.456   3.467   0.867 -0.7942 -0.0306  0.3547
  875THF     C214364   2.445   3.431   0.728  0.5169 -0.0997  0.4348
  875THF     C314365   2.470   3.347   0.933  0.3241 -0.1195 -0.1695
  875THF     H414366   2.461   3.532   0.689  1.9865  0.2221  1.7450
  875THF     H514367   2.339   3.406   0.720  0.5031 -0.0918  0.5878
  875THF     H614368   2.538   3.361   1.016 -1.7078  0.2444  1.5208
  875THF     H714369   2.380   3.312   0.983  1.3768 -1.4318  0.8811
  875THF     C814370   2.504   3.232   0.833 -1.1206 -0.5251  0.1149
  875THF     C914371   2.536   3.310   0.705  0.0511 -0.1789 -0.3670
  875THF    H1014372   2.409   3.182   0.812 -0.5158 -1.9036  0.5263
  875THF    H1114373   2.573   3.159   0.876  1.1556  0.5050 -1.5833
  875THF    H1214374   2.639   3.345   0.717  0.1102  0.3581 -2.2335
  875THF    H1314375   2.514   3.251   0.617  0.1898  0.2813 -0.7129
  876THF     O114376   5.337   4.681   1.850  0.4750 -0.0064 -0.1484
  876THF     C214377   5.295   4.812   1.816  0.7740 -0.2433 -0.0289
  876THF     C314378   5.285   4.601   1.737  0.7664 -0.0688 -0.7476
  876THF     H414379   5.354   4.888   1.866 -2.2092  2.8089 -0.8113
  876THF     H514380   5.190   4.834   1.835  0.7797  0.7386 -1.0557
  876THF     H614381   5.329   4.501   1.741  0.1852 -0.2998  0.4254
  876THF     H714382   5.178   4.587   1.744  0.7314 -0.1252 -1.3399
  876THF     C814383   5.304   4.677   1.608  0.2384 -0.8917 -0.7214
  876THF     C914384   5.318   4.820   1.665  0.0429 -0.6161  0.2186
  876THF    H1014385   5.218   4.666   1.542 -0.5739 -0.0183  0.1516
  876THF    H1114386   5.396   4.636   1.567  0.5832 -1.9341  1.0276
  876THF    H1214387   5.419   4.852   1.639 -0.4271  0.4267 -0.3963
  876THF    H1314388   5.255   4.891   1.612  1.3611  0.4033 -0.0491
  877THF     O114389   0.816   2.432   2.608 -0.7810  0.2515 -0.7086
  877THF     C214390   0.892   2.447   2.492 -0.1539 -0.6505 -0.0191
  877THF     C314391   0.711   2.344   2.570  0.2467 -0.1964 -0.4342
  877THF     H414392   0.988   2.488   2.522 -0.2825  0.3881 -0.9483
  877THF     H514393   0.846   2.519   2.423  1.0601 -1.6342 -1.9549
  877THF     H614394   0.661   2.295   2.654  2.0521 -0.3668  0.5906
  877THF     H714395   0.631   2.404   2.527  0.7035  0.3380 -0.5543
  877THF     C814396   0.765   2.247   2.465 -0.0226 -0.5299  0.1868
  877THF     C914397   0.892   2.317   2.412  0.1925 -0.1160 -0.1362
  877THF    H1014398   0.701   2.233   2.378 -1.0394  0.9174  0.6699
  877THF    H1114399   0.807   2.155   2.504 -2.6912 -1.3004  1.5076
  877THF    H1214400   0.976   2.250   2.432  1.3718  1.4804  0.5002
  877THF    H1314401   0.893   2.347   2.307  0.8224 -2.1755 -0.7687
  878THF     O114402   2.177   2.228   3.932 -0.2097 -0.3457 -0.3420
  878THF     C214403   2.172   2.104   4.008  0.0685 -0.2729 -0.4550
  878THF     C314404   2.099   2.329   3.992  0.3960  0.2275 -0.0816
  878THF     H414405   2.235   2.101   4.097  0.2285 -0.0833 -0.5627
  878THF     H514406   2.206   2.022   3.945 -1.4739 -0.0035 -1.6904
  878THF     H614407   2.156   2.375   4.074 -2.4922 -1.1034  2.8915
  878THF     H714408   2.055   2.404   3.927 -0.1867  0.7739  0.9110
  878THF     C814409   1.997   2.246   4.074 -0.2320 -0.5761 -0.2274
  878THF     C914410   2.030   2.098   4.058 -0.5140  0.0375 -0.5329
  878THF    H1014411   1.893   2.261   4.043 -1.3043 -1.7089  2.4906
  878THF    H1114412   1.997   2.279   4.178  1.1759  0.2885 -0.4705
  878THF    H1214413   2.015   2.041   4.150 -1.3944 -0.7731 -1.1642
  878THF    H1314414   1.962   2.061   3.982 -1.3038  2.1117 -0.8710
  879THF     O114415   5.167   3.317   3.227 -0.0203 -0.3709 -0.4527
  879THF     C214416   5.066   3.224   3.252  0.2485 -0.1411 -0.0326
  879THF     C314417   5.113   3.429   3.172 -0.1450  0.1593  0.3509
  879THF     H414418   5.017   3.214   3.349 -0.4982  0.6104 -0.3220
  879THF     H514419   5.105   3.122   3.247  1.0238  0.1311  0.3150
  879THF     H614420   5.062   3.473   3.258 -1.3130  0.6232 -0.5545
  879THF     H714421   5.187   3.501   3.140  3.4685 -3.6460 -0.8126
  879THF     C814422   5.018   3.371   3.070 -0.2318 -0.1807 -0.0492
  879THF     C914423   4.957   3.243   3.139 -0.3304  0.3408 -0.6405
  879THF    H1014424   5.076   3.337   2.985 -0.8652 -0.1324 -0.5111
  879THF    H1114425   4.944   3.443   3.035 -1.0248 -0.7962  0.3197
  879THF    H1214426   4.860   3.254   3.187 -0.4805 -0.2089 -0.8166
  879THF    H1314427   4.946   3.165   3.065 -0.4608 -0.2535 -0.0035
  880THF     O114428   0.066   3.270   5.227 -0.2372  0.2022 -0.1173
  880THF     C214429   0.009   3.138   5.221 -0.0508  0.5190  0.6413
  880THF     C314430   0.026   3.333   5.105  0.0162  0.3990  0.5892
  880THF     H414431  -0.030   3.111   5.319  0.1293  0.9411  0.8315
  880THF     H514432   0.088   3.069   5.192 -2.1499 -1.1330 -1.5140
  880THF     H614433   0.032   3.440   5.122 -0.7165  1.1707 -3.2894
  880THF     H714434   0.094   3.302   5.027  2.1226  0.1718  2.4231
  880THF     C814435  -0.113   3.281   5.069 -0.0871 -0.5149  0.3241
  880THF     C914436  -0.095   3.142   5.108  0.5554  0.1747 -0.4422
  880THF    H1014437  -0.148   3.295   4.967 -0.7661  0.6425  0.6898
  880THF    H1114438  -0.190   3.321   5.135  0.7483  0.6017  0.6582
  880THF    H1214439  -0.178   3.098   5.163  1.2650  0.3302  0.8169
  880THF    H1314440  -0.057   3.072   5.033  1.2467 -1.0556  0.9954
  881THF     O114441   1.259   1.643   4.640 -0.4315  0.0839 -0.0534
  881THF     C214442   1.337   1.661   4.756 -0.7225  0.4313 -0.9471
  881THF     C314443   1.335   1.545   4.562  0.6093 -0.7251  0.3747
  881THF     H414444   1.318   1.575   4.820 -1.5951 -0.3714 -2.2277
  881THF     H514445   1.313   1.746   4.820 -2.2038 -0.7790  0.1680
  881THF     H614446   1.303   1.442   4.582  0.9844 -0.6821  1.2399
  881THF     H714447   1.328   1.565   4.455  1.2210 -1.1777  0.2485
  881THF     C814448   1.481   1.548   4.604 -0.3396  0.2697 -0.4965
  881THF     C914449   1.477   1.655   4.704  0.1327 -0.3282 -0.1291
  881THF    H1014450   1.542   1.567   4.516 -0.7472  0.3766 -0.7594
  881THF    H1114451   1.514   1.457   4.655 -0.0438  0.4640 -0.3407
  881THF    H1214452   1.549   1.645   4.786 -0.0932 -0.7148  0.0250
  881THF    H1314453   1.488   1.750   4.651 -2.1910 -0.5175 -1.0581
  882THF     O114454   3.584   5.103   2.547  0.1522  0.5905  0.6446
  882THF     C214455   3.684   5.078   2.652 -0.1160 -0.4575 -0.0075
  882THF     C314456   3.641   5.037   2.429  1.0008 -0.2650  0.0889
  882THF     H414457   3.688   4.971   2.672 -1.9196 -1.0759 -2.4830
  882THF     H514458   3.668   5.136   2.743  0.6156 -0.4579  0.1297
  882THF     H614459   3.632   4.929   2.437 -1.1989 -0.2481 -1.2266
  882THF     H714460   3.600   5.065   2.332  0.5934 -1.0682  0.0237
  882THF     C814461   3.784   5.085   2.428  0.2621 -0.2500 -0.2405
  882THF     C914462   3.807   5.117   2.578 -0.4627 -0.2170  0.5074
  882THF    H1014463   3.795   5.176   2.370 -0.9132 -0.0900 -0.2389
  882THF    H1114464   3.842   5.000   2.391 -0.5736 -0.9116 -0.0781
  882THF    H1214465   3.898   5.070   2.617 -2.1816 -2.2454  2.3174
  882THF    H1314466   3.817   5.225   2.586 -0.1507 -0.1157 -1.0358
  883THF     O114467   2.178   3.492   1.056 -0.3887  0.0885  0.0483
  883THF     C214468   2.110   3.415   0.955  0.5838  0.0228  0.1788
  883THF     C314469   2.079   3.582   1.098 -0.5567 -0.1959  0.8198
  883THF     H414470   2.046   3.339   1.001  0.3621 -0.2488 -0.5620
  883THF     H514471   2.179   3.352   0.900 -2.6362 -3.2964 -0.4689
  883THF     H614472   2.001   3.536   1.159 -1.6332  3.0437  2.1106
  883THF     H714473   2.125   3.658   1.161  0.4587  0.3277 -0.5157
  883THF     C814474   2.011   3.636   0.966 -0.4437 -0.3567 -0.2567
  883THF     C914475   2.024   3.516   0.873 -0.6224 -0.6474  0.2897
  883THF    H1014476   2.062   3.728   0.936 -1.5425  0.2352 -0.3349
  883THF    H1114477   1.907   3.658   0.986  0.5112  2.1665  2.6367
  883THF    H1214478   1.929   3.469   0.846 -0.4755  0.1242 -1.7447
  883THF    H1314479   2.078   3.554   0.787 -2.3385  0.6042 -0.2886
  884THF     O114480   1.103   2.585   1.622 -0.3038  0.0984 -0.3793
  884THF     C214481   1.083   2.546   1.490 -0.2194  0.1977 -0.5386
  884THF     C314482   1.126   2.728   1.631  0.3903 -0.4419  0.3168
  884THF     H414483   1.037   2.448   1.479 -0.6266  0.4343 -0.9850
  884THF     H514484   1.182   2.546   1.446 -0.5238  0.2990 -1.2504
  884THF     H614485   1.088   2.775   1.721 -1.1860 -0.1185 -0.4879
  884THF     H714486   1.234   2.740   1.624  0.4036 -1.2612 -1.4740
  884THF     C814487   1.068   2.776   1.494 -0.4521  0.4284  0.1075
  884THF     C914488   1.004   2.658   1.423  0.3253  0.3332 -0.1423
  884THF    H1014489   1.155   2.811   1.437 -0.3425 -0.1179 -0.0691
  884THF    H1114490   1.013   2.868   1.513  1.2666  1.3555  0.8434
  884THF    H1214491   0.897   2.658   1.446  0.7185 -1.2766  2.0767
  884THF    H1314492   1.009   2.662   1.315  1.8645 -0.9546 -0.1537
  885THF     O114493   1.063   2.998   4.045 -0.1901  0.0320  0.0948
  885THF     C214494   1.015   3.124   4.044 -0.6407  0.1958  0.1056
  885THF     C314495   1.004   2.928   4.154  0.3234 -0.5952 -0.5758
  885THF     H414496   0.917   3.121   3.996 -0.2831 -0.8255 -0.5836
  885THF     H514497   1.075   3.189   3.979  0.1969 -0.8358 -0.1728
  885THF     H614498   0.916   2.876   4.117 -1.3026  1.5730  0.0398
  885THF     H714499   1.072   2.857   4.202  1.6767 -0.2674 -1.9072
  885THF     C814500   0.977   3.037   4.256 -0.1925  1.5191 -0.7120
  885THF     C914501   1.017   3.167   4.187  0.1432  1.0177  0.0387
  885THF    H1014502   1.044   3.027   4.341 -0.9561 -3.7687 -0.3655
  885THF    H1114503   0.876   3.028   4.295 -0.0535  0.1401 -0.5870
  885THF    H1214504   0.940   3.244   4.187 -1.0727 -0.1524 -0.1113
  885THF    H1314505   1.118   3.202   4.208  0.8716  0.4642 -2.2142
  886THF     O114506   0.630   3.958   1.998 -0.1155 -0.4868 -0.5431
  886THF     C214507   0.761   3.949   2.050  0.0869 -1.2805  0.5026
  886THF     C314508   0.603   4.093   1.960 -0.1330  0.2534  0.3889
  886THF     H414509   0.816   3.865   2.006  4.0249  0.8236  0.9205
  886THF     H514510   0.758   3.927   2.157  1.2642  0.8367  1.0267
  886THF     H614511   0.528   4.089   1.881  0.7024 -2.9135 -0.3790
  886THF     H714512   0.567   4.155   2.043  0.9740 -1.7346  2.4569
  886THF     C814513   0.738   4.131   1.894  0.0261  0.9904  0.2109
  886THF     C914514   0.827   4.091   2.010 -0.4902  0.4308 -0.0998
  886THF    H1014515   0.741   4.235   1.861  0.7488 -0.0041 -3.2348
  886THF    H1114516   0.753   4.063   1.810 -0.6514  0.1063  0.7922
  886THF    H1214517   0.931   4.079   1.979  0.2076 -0.5951  2.3838
  886THF    H1314518   0.827   4.162   2.092  0.4140 -0.8148  1.0221
  887THF     O114519   1.124   2.399   4.864 -0.2212  0.4923  0.8071
  887THF     C214520   1.051   2.480   4.949 -0.4601 -0.3075 -0.5423
  887THF     C314521   1.131   2.457   4.734  0.3703  0.1565  0.2744
  887THF     H414522   1.107   2.488   5.042 -2.3008 -2.4133  0.8465
  887THF     H514523   0.955   2.435   4.975 -1.2314  1.2501 -0.5653
  887THF     H614524   1.219   2.432   4.675  0.1433  1.0877 -0.4932
  887THF     H714525   1.043   2.442   4.672  0.7696 -1.5725  0.0977
  887THF     C814526   1.129   2.600   4.767  0.2860  0.0155  0.5704
  887THF     C914527   1.024   2.606   4.871  0.4666 -0.5652  0.4211
  887THF    H1014528   1.109   2.658   4.677 -1.0094  0.4636  1.1321
  887THF    H1114529   1.231   2.622   4.799  0.7595  0.7221 -1.2993
  887THF    H1214530   1.040   2.689   4.940 -1.3603  0.0503  0.1692
  887THF    H1314531   0.930   2.612   4.816 -0.1077 -3.4966  0.9373
  888THF     O114532   0.584   4.370   4.118 -0.2827 -0.4359 -0.5630
  888THF     C214533   0.547   4.369   3.981  0.6075  0.4150 -0.5306
  888THF     C314534   0.601   4.509   4.153 -0.3045 -0.5150  0.0314
  888THF     H414535   0.492   4.277   3.959 -1.6915  1.8096 -0.8975
  888THF     H514536   0.636   4.362   3.918 -0.5736  0.9598 -2.3520
  888THF     H614537   0.608   4.512   4.261  0.9724 -1.6231  0.0090
  888THF     H714538   0.692   4.555   4.114  0.4375 -0.9972  1.1520
  888THF     C814539   0.478   4.572   4.088  0.6101 -0.2513 -0.7148
  888THF     C914540   0.473   4.496   3.952 -0.6883 -0.0741  0.5426
  888THF    H1014541   0.482   4.681   4.081 -1.5009 -0.1710 -1.7041
  888THF    H1114542   0.394   4.539   4.149  2.1000 -1.4052  0.7870
  888THF    H1214543   0.371   4.469   3.925 -0.0335 -1.8799 -0.2952
  888THF    H1314544   0.534   4.541   3.873  2.2101 -1.4243  1.8675
  889THF     O114545   1.886   0.918   5.129 -0.3551 -0.3263 -0.2412
  889THF     C214546   1.748   0.909   5.164  0.6962  0.1438  0.2425
  889THF     C314547   1.890   0.959   4.991 -0.4733  0.5780 -0.4167
  889THF     H414548   1.718   0.917   5.268 -1.2631 -0.4634 -0.2332
  889THF     H514549   1.705   0.812   5.136  0.6042  0.3317 -0.2884
  889THF     H614550   1.987   0.989   4.952 -0.7751  0.4172 -1.3358
  889THF     H714551   1.852   0.883   4.922  1.3622  0.3078 -1.1785
  889THF     C814552   1.792   1.069   4.994  0.2445  0.5854 -0.8091
  889THF     C914553   1.681   1.026   5.090 -0.0804  0.4255 -0.6377
  889THF    H1014554   1.749   1.110   4.903 -1.3275 -1.3685 -0.9945
  889THF    H1114555   1.847   1.154   5.036  2.1189 -1.9267  2.2356
  889THF    H1214556   1.667   1.108   5.160 -2.4145 -0.0737 -0.4502
  889THF    H1314557   1.589   0.987   5.047 -0.0347 -1.5989  0.9406
  890THF     O114558   0.419   4.967   2.599  0.2026 -0.2410  0.1680
  890THF     C214559   0.421   4.993   2.737 -0.0673  0.2196 -0.4213
  890THF     C314560   0.346   4.849   2.580  0.4506 -0.1256 -0.2413
  890THF     H414561   0.329   5.036   2.778  1.1789  1.5997  1.0950
  890THF     H514562   0.508   5.051   2.767  1.0055 -0.3626 -2.2536
  890THF     H614563   0.241   4.855   2.609 -0.1115 -0.0860 -2.1516
  890THF     H714564   0.339   4.827   2.473  0.9886  0.9714 -0.5182
  890THF     C814565   0.408   4.757   2.676 -0.1703  0.2031 -0.2811
  890THF     C914566   0.443   4.849   2.793  0.3317  0.4472  0.4115
  890THF    H1014567   0.498   4.717   2.629  1.6032  3.3014  0.2246
  890THF    H1114568   0.340   4.674   2.697  1.2351 -0.5872  1.3705
  890THF    H1214569   0.377   4.831   2.877 -1.6840  1.1023 -0.9415
  890THF    H1314570   0.541   4.810   2.818  1.0841  1.7089 -0.3981
  891THF     O114571   0.529   4.687   0.763  0.0651 -0.3869  0.4162
  891THF     C214572   0.505   4.615   0.878 -0.4403  0.6009  0.2582
  891THF     C314573   0.558   4.595   0.652  1.1772 -0.2594 -0.3372
  891THF     H414574   0.452   4.656   0.963  1.3150  0.6061  1.3984
  891THF     H514575   0.600   4.581   0.918  0.9733  3.1883 -0.6867
  891THF     H614576   0.521   4.643   0.562 -0.4490  0.4665  0.6726
  891THF     H714577   0.666   4.579   0.649  2.1243  4.5941 -0.4018
  891THF     C814578   0.482   4.472   0.694  0.6710  0.8847  0.0857
  891THF     C914579   0.421   4.506   0.821 -0.5477  0.6362 -0.1893
  891THF    H1014580   0.540   4.380   0.697  0.1290  0.4316 -1.8216
  891THF    H1114581   0.409   4.447   0.616 -0.4325  0.1360  1.3014
  891THF    H1214582   0.320   4.541   0.798 -1.2625  0.6834  2.6695
  891THF    H1314583   0.408   4.422   0.889 -0.3956  1.6975  1.2085
  892THF     O114584   2.111   2.719   1.195  0.0520  0.1623 -0.2107
  892THF     C214585   2.205   2.720   1.306  0.1152  0.0663  0.2794
  892THF     C314586   2.010   2.617   1.225 -0.0183 -0.1800 -0.0507
  892THF     H414587   2.177   2.795   1.380 -0.4844  1.2113 -1.0596
  892THF     H514588   2.307   2.746   1.279 -0.1422 -0.1871 -0.9953
  892THF     H614589   1.947   2.655   1.305  2.0222  1.8128  0.7108
  892THF     H714590   1.957   2.585   1.135 -3.5926 -0.8001  2.0980
  892THF     C814591   2.105   2.508   1.276  0.3406  0.2721  0.1500
  892THF     C914592   2.208   2.578   1.359  0.1981  0.4982 -0.7743
  892THF    H1014593   2.163   2.464   1.195  0.2513 -2.2191  1.3604
  892THF    H1114594   2.068   2.423   1.333 -1.8396  0.6976 -0.5482
  892THF    H1214595   2.160   2.588   1.456  0.5046  1.9182 -0.7541
  892THF    H1314596   2.303   2.527   1.372  0.6322  1.3659 -0.4959
  893THF     O114597   0.109   3.523   4.063  0.2719  0.1099  0.0194
  893THF     C214598   0.109   3.446   3.949 -0.0703  0.0431 -0.5405
  893THF     C314599   0.199   3.629   4.042  0.3038 -0.2639  0.1766
  893THF     H414600   0.053   3.486   3.865 -0.7246  0.6871  0.1878
  893THF     H514601   0.065   3.348   3.966  2.9523 -1.2196  0.7725
  893THF     H614602   0.164   3.701   3.968 -0.5746 -1.3974 -0.5571
  893THF     H714603   0.223   3.675   4.138 -1.6443  1.1743  0.0521
  893THF     C814604   0.321   3.548   3.989 -0.3694 -0.5648 -0.5351
  893THF     C914605   0.257   3.436   3.913  0.1302 -0.6751  0.5786
  893THF    H1014606   0.388   3.517   4.069  0.8287  1.2508 -0.7744
  893THF    H1114607   0.379   3.606   3.916 -0.0400 -1.1993 -0.7831
  893THF    H1214608   0.278   3.450   3.807 -0.5300  1.3641  0.6754
  893THF    H1314609   0.298   3.340   3.944  0.4469 -1.1411 -1.1489
  894THF     O114610   2.814   0.370   3.350  0.0292 -0.0030 -0.0318
  894THF     C214611   2.906   0.448   3.285  0.1715  0.6325 -0.1909
  894THF     C314612   2.706   0.326   3.260 -0.3711 -0.6542 -0.4538
  894THF     H414613   2.983   0.393   3.233  0.0613  0.6171 -0.3394
  894THF     H514614   2.960   0.519   3.348  0.5671 -0.4168  0.6711
  894THF     H614615   2.709   0.219   3.237 -1.9318 -0.8785  0.2117
  894THF     H714616   2.611   0.338   3.312  0.0676 -0.8522  0.4096
  894THF     C814617   2.726   0.407   3.131 -0.1979  0.1934 -0.8133
  894THF     C914618   2.822   0.521   3.179  0.2833 -0.0845 -0.3712
  894THF    H1014619   2.638   0.435   3.074 -0.1814 -0.2242 -1.0463
  894THF    H1114620   2.789   0.348   3.064 -2.7066 -1.5196 -1.8143
  894THF    H1214621   2.883   0.566   3.100  0.0323 -2.0483 -1.7584
  894THF    H1314622   2.772   0.592   3.245  1.2947 -1.4713  2.0057
  895THF     O114623   1.541   4.518   2.243 -0.3431  0.5783  0.1629
  895THF     C214624   1.406   4.508   2.286 -0.1418  0.1160 -1.0031
  895THF     C314625   1.619   4.439   2.330 -0.2812 -0.4379  0.5153
  895THF     H414626   1.337   4.523   2.204 -0.0842  0.9363 -0.9112
  895THF     H514627   1.401   4.588   2.360  0.1380 -1.6516  1.0250
  895THF     H614628   1.703   4.392   2.279 -0.6597 -2.2141  1.4168
  895THF     H714629   1.645   4.495   2.420 -0.8725  1.5404 -0.4877
  895THF     C814630   1.529   4.319   2.345  0.5062 -0.1657 -0.2050
  895THF     C914631   1.390   4.373   2.352  0.1686 -0.0006 -0.3939
  895THF    H1014632   1.553   4.267   2.438 -1.3154  2.5968  1.9617
  895THF    H1114633   1.530   4.258   2.255 -0.0159 -0.6796  0.1263
  895THF    H1214634   1.337   4.292   2.302  0.7504 -1.2971  1.0320
  895THF    H1314635   1.340   4.391   2.447  1.5116  2.2764 -0.0390
  896THF     O114636   5.502   0.037   4.143 -0.1177  0.5786 -0.0333
  896THF     C214637   5.616  -0.046   4.156  0.5520 -0.4903  0.7830
  896THF     C314638   5.516   0.166   4.204 -0.3496 -0.0338 -0.4785
  896THF     H414639   5.676  -0.048   4.065  3.4529 -0.4182  2.5663
  896THF     H514640   5.585  -0.147   4.183  2.1353 -0.7907  1.5833
  896THF     H614641   5.549   0.247   4.138  0.9703  0.5453  0.8246
  896THF     H714642   5.418   0.199   4.237 -0.1058 -0.2640  0.4776
  896THF     C814643   5.615   0.131   4.320  0.6073  0.7004 -0.0863
  896THF     C914644   5.702   0.012   4.264 -0.2606 -0.7145 -0.1938
  896THF    H1014645   5.563   0.098   4.410  3.2123  0.9054  1.6222
  896THF    H1114646   5.686   0.208   4.351  1.0535 -0.0874  0.8854
  896THF    H1214647   5.790   0.062   4.224  0.0371 -0.1566  1.1049
  896THF    H1314648   5.734  -0.054   4.345  2.5751 -0.6940 -1.1837
  897THF     O114649   4.795   2.250   2.703 -0.3459 -0.0886  0.3726
  897THF     C214650   4.900   2.163   2.750  0.2549  0.3526  0.1192
  897THF     C314651   4.835   2.388   2.729  0.6161  0.0766  0.0344
  897THF     H414652   4.900   2.065   2.703 -0.0100  0.1133  0.6159
  897THF     H514653   4.900   2.160   2.859  0.4862 -0.3795  0.1062
  897THF     H614654   4.793   2.461   2.660  0.4285  0.5419  0.6398
  897THF     H714655   4.795   2.411   2.827 -0.6820  1.8156 -0.8517
  897THF     C814656   4.988   2.370   2.732  0.4281 -0.1213  0.6115
  897THF     C914657   5.020   2.229   2.701 -0.0972  0.1391 -0.3719
  897THF    H1014658   5.024   2.386   2.833 -0.4936  2.4201  0.5956
  897THF    H1114659   5.034   2.439   2.662 -1.5604 -0.6901 -1.3804
  897THF    H1214660   5.034   2.210   2.595 -1.2079  1.1346 -0.7277
  897THF    H1314661   5.103   2.184   2.755 -0.0858  1.4961  0.8125
  898THF     O114662   0.253   3.460   0.472 -0.3002 -0.5058 -0.4211
  898THF     C214663   0.213   3.457   0.610 -0.0990  0.4677  0.3622
  898THF     C314664   0.148   3.395   0.399  0.1539  0.3140 -0.3920
  898THF     H414665   0.152   3.541   0.643  0.4016  0.4621  1.3279
  898THF     H514666   0.302   3.455   0.673  0.9840  1.9567 -1.0190
  898THF     H614667   0.084   3.465   0.345  0.0935 -0.1917 -0.9822
  898THF     H714668   0.182   3.341   0.311  0.2990 -0.4354  0.1176
  898THF     C814669   0.072   3.308   0.490 -0.2146  0.2615 -0.7238
  898THF     C914670   0.126   3.335   0.626 -0.8182  0.6143 -0.2181
  898THF    H1014671   0.064   3.207   0.450 -1.6101  0.5065 -1.1127
  898THF    H1114672  -0.032   3.340   0.496  0.1613  1.2871  2.7681
  898THF    H1214673   0.050   3.335   0.704 -0.0060  1.1390  0.5974
  898THF    H1314674   0.189   3.255   0.665 -2.1420  0.1055  0.9769
  899THF     O114675   0.951   2.103   1.058 -0.3704 -0.2238  0.3310
  899THF     C214676   0.825   2.032   1.038 -0.2324 -1.2001  0.2504
  899THF     C314677   0.975   2.163   0.929 -0.5416  0.3266 -0.5827
  899THF     H414678   0.734   2.093   1.047  1.4722  1.2806  2.2335
  899THF     H514679   0.820   1.961   1.120 -0.7961  0.4280  1.6966
  899THF     H614680   0.918   2.255   0.912  0.2185  0.7116 -1.0878
  899THF     H714681   1.078   2.196   0.920  0.8151 -3.4257 -0.2635
  899THF     C814682   0.933   2.063   0.827  1.2015 -1.1085  0.5971
  899THF     C914683   0.834   1.971   0.905  0.6522  0.8463 -0.2122
  899THF    H1014684   1.019   2.001   0.802  0.2425 -2.2506  0.0056
  899THF    H1114685   0.910   2.132   0.746  1.1517 -0.4069  1.2043
  899THF    H1214686   0.742   1.967   0.846  0.4225  0.7639  0.1515
  899THF    H1314687   0.866   1.868   0.921 -0.9748  0.2881 -0.3782
  900THF     O114688   3.976   0.563   2.654  0.1925  0.0840 -0.1738
  900THF     C214689   4.034   0.466   2.750 -0.2244 -0.0457 -0.1543
  900THF     C314690   3.846   0.596   2.712 -0.5188  0.4473 -1.0205
  900THF     H414691   4.104   0.514   2.819 -0.4926  1.8678 -1.1555
  900THF     H514692   4.098   0.395   2.698  1.3488  0.1985  1.3533
  900THF     H614693   3.845   0.692   2.763 -0.8754  0.4225 -0.9733
  900THF     H714694   3.770   0.595   2.634  1.0930 -2.6519 -2.7427
  900THF     C814695   3.807   0.488   2.818  0.3362 -0.4526 -0.5508
  900THF     C914696   3.921   0.391   2.816 -0.2220  0.3449  0.7686
  900THF    H1014697   3.705   0.456   2.796 -0.9079 -1.1015  4.8614
  900THF    H1114698   3.797   0.524   2.920 -0.5212 -2.8221  0.2783
  900THF    H1214699   3.952   0.336   2.905  0.4981 -0.0485  0.2824
  900THF    H1314700   3.885   0.311   2.753 -2.0770  0.2540  1.8781
  901PF6-    P114701   0.064   0.048   2.420  0.5615 -0.0073  0.0840
  901PF6-    F214702  -0.052   0.160   2.408  0.2256 -0.0654 -0.1713
  901PF6-    F314703   0.182  -0.062   2.430 -0.5262  0.2890 -0.4575
  901PF6-    F414704  -0.037  -0.049   2.491 -0.0618 -0.3932 -0.4401
  901PF6-    F514705   0.170   0.147   2.347  0.1553 -0.1067  0.1894
  901PF6-    F614706   0.107   0.107   2.561  0.1352  0.1348 -0.1479
  901PF6-    F714707   0.017  -0.013   2.275  0.3341 -0.1501  0.3680
  902PF6-    P114708   1.966   2.434   1.709  0.0015  0.1019  0.0637
  902PF6-    F214709   1.980   2.349   1.575 -0.2072  0.3157  0.8982
  902PF6-    F314710   1.936   2.515   1.843  0.0075  0.4511  0.2599
  902PF6-    F414711   2.124   2.457   1.722 -0.5921  0.0935 -0.2002
  902PF6-    F514712   1.811   2.417   1.696  0.3432 -0.1465  0.0491
  902PF6-    F614713   1.973   2.295   1.791  0.3711 -0.6880 -0.1024
  902PF6-    F714714   1.960   2.571   1.627 -0.0112 -0.6288 -0.5212
  903PF6-    P114715   2.284   0.466   0.288  0.2475  0.4727 -0.2144
  903PF6-    F214716   2.328   0.621   0.304  0.1135  0.3160 -0.5246
  903PF6-    F314717   2.246   0.311   0.259  0.2592  0.6743 -0.2640
  903PF6-    F414718   2.130   0.510   0.272 -0.6228  0.3941  0.2007
  903PF6-    F514719   2.433   0.422   0.307 -0.3319  0.1801 -0.1678
  903PF6-    F614720   2.258   0.445   0.447  0.7208  0.3700  0.0482
  903PF6-    F714721   2.305   0.486   0.131  0.2141  0.4238 -0.0803
  904PF6-    P114722   1.722   1.507   0.831 -0.5271 -0.2733 -0.1169
  904PF6-    F214723   1.601   1.519   0.946  0.5404  0.1034  0.4705
  904PF6-    F314724   1.844   1.509   0.722  0.2428  0.3725  0.3682
  904PF6-    F414725   1.753   1.661   0.863 -0.1438  0.0037 -0.5074
  904PF6-    F514726   1.684   1.356   0.796  0.3665  0.0870 -0.2243
  904PF6-    F614727   1.622   1.557   0.714  0.4130 -0.3527 -0.0598
  904PF6-    F714728   1.819   1.455   0.945 -0.6668  0.3430  0.1297
  905PF6-    P114729   4.184   3.900   0.397 -0.3875  0.2473  0.0400
  905PF6-    F214730   4.299   4.011   0.407  0.1204 -0.5008  0.3317
  905PF6-    F314731   4.069   3.790   0.393  0.1795  0.0312 -0.3064
  905PF6-    F414732   4.267   3.817   0.284  0.3122 -0.1396 -0.6260
  905PF6-    F514733   4.097   3.977   0.506 -0.4092 -0.0899 -0.4555
  905PF6-    F614734   4.112   3.985   0.275 -0.2012  0.6321  0.5037
  905PF6-    F714735   4.259   3.812   0.506 -0.3924 -0.0911 -0.0585
  906PF6-    P114736   4.616   3.894   1.263  0.2459  0.0936 -0.0043
  906PF6-    F214737   4.670   4.035   1.220 -0.2814  0.2820 -0.5869
  906PF6-    F314738   4.557   3.751   1.311  0.2225 -0.3060  0.5694
  906PF6-    F414739   4.596   3.952   1.413 -0.4271  0.6001 -0.0652
  906PF6-    F514740   4.623   3.830   1.107 -0.6069 -0.0338 -1.0777
  906PF6-    F614741   4.763   3.833   1.293  0.0062  0.1619 -0.5278
  906PF6-    F714742   4.471   3.947   1.228  0.3314 -0.0525 -0.7261
  907PF6-    P114743   0.907   2.501   0.645 -0.1462 -0.2543 -0.1231
  907PF6-    F214744   0.784   2.609   0.661 -0.0460 -0.2553  0.0212
  907PF6-    F314745   1.023   2.389   0.630  0.5161  0.2635  0.0659
  907PF6-    F414746   0.960   2.555   0.791  0.0403 -0.0307  0.1666
  907PF6-    F514747   0.855   2.463   0.498 -0.0187  0.3724  0.2172
  907PF6-    F614748   1.011   2.604   0.572  0.2623  0.2518 -0.2159
  907PF6-    F714749   0.812   2.394   0.715 -0.0978  0.0023  0.5098
  908PF6-    P114750   3.654   2.040   2.359 -0.0836  0.2129  0.4313
  908PF6-    F214751   3.750   2.035   2.231 -1.0095  0.1051  0.5086
  908PF6-    F314752   3.554   2.041   2.489  0.5077 -0.2494  0.3738
  908PF6-    F414753   3.543   1.959   2.279  0.2449 -0.3636  0.0955
  908PF6-    F514754   3.764   2.125   2.444  0.2445  0.1579  0.6141
  908PF6-    F614755   3.599   2.176   2.307  0.3982 -0.2387  0.0615
  908PF6-    F714756   3.713   1.899   2.409 -0.1702  0.2897  0.4378
  909PF6-    P114757   2.001   2.234   3.192 -0.3611  0.0024 -0.2311
  909PF6-    F214758   1.912   2.339   3.272 -0.2606  0.3511 -0.2502
  909PF6-    F314759   2.094   2.133   3.105 -0.7693 -0.1473  0.0764
  909PF6-    F414760   2.031   2.158   3.327 -0.0030 -0.2724  0.1690
  909PF6-    F514761   1.975   2.314   3.053 -0.3056 -0.2358 -0.0956
  909PF6-    F614762   2.131   2.324   3.217  0.4748 -0.5265 -0.9226
  909PF6-    F714763   1.876   2.136   3.158 -0.4594 -0.3685 -0.7347
  910PF6-    P114764   2.184   3.720   2.463  0.0264  0.2513 -0.0282
  910PF6-    F214765   2.250   3.843   2.382  0.3846 -0.5021 -0.1042
  910PF6-    F314766   2.122   3.601   2.551 -0.1677 -0.0766  0.2748
  910PF6-    F414767   2.293   3.618   2.400 -0.2421 -0.1970  0.2443
  910PF6-    F514768   2.076   3.823   2.524  0.1026  0.2142 -0.1494
  910PF6-    F614769   2.087   3.687   2.343 -0.1030  0.3356 -0.3871
  910PF6-    F714770   2.284   3.759   2.579 -0.2067 -0.1888 -0.2823
  911PF6-    P114771   1.253   3.771   3.461 -0.1189 -0.0302  0.2637
  911PF6-    F214772   1.154   3.661   3.534 -0.2910 -0.1078 -0.3083
  911PF6-    F314773   1.341   3.878   3.382 -0.3799  0.2533 -0.3863
  911PF6-    F414774   1.140   3.779   3.350 -0.0132  0.2518 -0.2297
  911PF6-    F514775   1.363   3.751   3.574 -0.4170  0.2719 -0.4091
  911PF6-    F614776   1.324   3.660   3.376 -0.0441 -0.0107 -0.3444
  911PF6-    F714777   1.181   3.895   3.543 -0.3481  0.4491  0.1867
  912PF6-    P114778   2.265   4.519   4.285 -0.3435 -0.2194 -0.1168
  912PF6-    F214779   2.359   4.590   4.394  0.0501 -0.1886 -0.0723
  912PF6-    F314780   2.170   4.449   4.178  0.1894  0.0215 -0.0007
  912PF6-    F414781   2.391   4.438   4.221 -0.2568 -0.1247 -0.2657
  912PF6-    F514782   2.139   4.599   4.338 -0.0266  0.2058  0.2589
  912PF6-    F614783   2.291   4.641   4.181 -0.2339 -0.3391  0.2794
  912PF6-    F714784   2.233   4.403   4.391 -0.3841 -0.1081  0.1234
  913PF6-    P114785   5.462   5.128   1.207  0.0774 -0.0702 -0.0555
  913PF6-    F214786   5.348   5.110   1.317  0.1076 -0.2796  0.5467
  913PF6-    F314787   5.581   5.148   1.096  0.0971 -0.5886  0.1764
  913PF6-    F414788   5.567   5.160   1.322 -0.5287  0.5568 -0.1945
  913PF6-    F514789   5.357   5.091   1.083  0.3527  0.2367 -0.1301
  913PF6-    F614790   5.424   5.286   1.197  0.9347  0.1131  0.2780
  913PF6-    F714791   5.499   4.969   1.217 -0.8742 -0.2739 -0.2967
  914PF6-    P114792   4.036   1.126   1.720 -0.0761  0.1581 -0.7202
  914PF6-    F214793   3.907   1.048   1.671 -0.1039  1.0182 -0.0969
  914PF6-    F314794   4.166   1.200   1.777  0.6921  0.2570 -0.0909
  914PF6-    F414795   4.004   1.071   1.869 -0.0598 -0.0544 -0.1649
  914PF6-    F514796   4.065   1.179   1.575 -0.2741  0.5060 -0.4357
  914PF6-    F614797   3.945   1.257   1.748 -0.3090  0.2963  0.1092
  914PF6-    F714798   4.127   0.997   1.679 -0.1013 -0.3253 -0.1559
  915PF6-    P114799   2.430   1.227   4.180 -0.5304 -0.2760 -0.0437
  915PF6-    F214800   2.430   1.173   4.034  0.7132 -0.4369 -0.4865
  915PF6-    F314801   2.430   1.282   4.330 -0.0027  0.3540  0.3177
  915PF6-    F414802   2.338   1.350   4.138 -0.1426 -0.0750  0.1819
  915PF6-    F514803   2.523   1.109   4.224 -0.0979  0.0012  0.5117
  915PF6-    F614804   2.562   1.311   4.147  0.5372 -0.0680  0.0095
  915PF6-    F714805   2.296   1.146   4.215  0.6260 -0.1599 -1.1208
  916PF6-    P114806   5.059   5.125   3.571 -0.0745  0.0563  0.2553
  916PF6-    F214807   5.183   5.034   3.629 -0.0708  0.1772 -0.3129
  916PF6-    F314808   4.934   5.210   3.515  0.2949  0.1866 -0.8335
  916PF6-    F414809   4.981   4.993   3.531 -0.0464  0.4535  0.2724
  916PF6-    F514810   5.139   5.260   3.602 -0.0242  0.6308 -0.6031
  916PF6-    F614811   5.127   5.135   3.424 -0.0727 -0.1197  0.8153
  916PF6-    F714812   4.988   5.129   3.715  0.1385  0.1515 -0.0650
  917PF6-    P114813   1.035   3.544   0.462 -0.3312  0.3401  0.4723
  917PF6-    F214814   1.172   3.627   0.429 -0.6226 -0.0750  0.0883
  917PF6-    F314815   0.903   3.459   0.501 -0.2288 -0.0440  0.1775
  917PF6-    F414816   0.945   3.652   0.386 -0.1963  0.3295 -0.0013
  917PF6-    F514817   1.117   3.435   0.548 -0.3134  0.4596  0.1876
  917PF6-    F614818   1.022   3.631   0.599  0.0844  0.4740  0.4339
  917PF6-    F714819   1.050   3.454   0.324 -0.1575  0.5433  0.1771
  918PF6-    P114820   4.118   4.607   5.264  0.1680 -0.0499 -0.1661
  918PF6-    F214821   4.087   4.500   5.380 -0.2318 -0.3115  0.0642
  918PF6-    F314822   4.143   4.714   5.152  0.5269  0.0306  0.6958
  918PF6-    F414823   3.970   4.674   5.288  0.1169  0.4912  0.3239
  918PF6-    F514824   4.261   4.544   5.237 -0.2038 -0.2589 -0.6529
  918PF6-    F614825   4.049   4.507   5.158 -0.2668  0.1106  0.0363
  918PF6-    F714826   4.174   4.709   5.372  0.7648  0.7672 -0.3766
  919PF6-    P114827   3.049   3.979   0.122  0.1804 -0.1161  0.0430
  919PF6-    F214828   3.101   3.857   0.036 -0.3104  0.0720 -0.2831
  919PF6-    F314829   2.989   4.100   0.211 -0.1483 -0.3913  0.0558
  919PF6-    F414830   3.172   4.069   0.082 -0.2828  0.3966  0.0783
  919PF6-    F514831   2.915   3.899   0.168 -0.5873 -0.2434 -0.0626
  919PF6-    F614832   3.134   3.924   0.250  1.0357  0.0820 -0.1861
  919PF6-    F714833   2.974   4.032  -0.012 -0.6590  0.4332  0.1601
  920PF6-    P114834   4.345   2.572   1.985 -0.1716 -0.3787 -0.0234
  920PF6-    F214835   4.213   2.486   1.966  0.4332  0.1808  0.0199
  920PF6-    F314836   4.473   2.663   1.995 -0.0602 -0.2274  0.2134
  920PF6-    F414837   4.354   2.586   1.832 -0.3835  0.0527  0.0773
  920PF6-    F514838   4.337   2.556   2.146 -0.0220  0.7618 -0.2368
  920PF6-    F614839   4.437   2.441   1.977 -0.0444 -0.0663  0.5189
  920PF6-    F714840   4.257   2.699   2.003  0.5989  0.1497 -0.4124
  921PF6-    P114841   0.434   3.692   1.403 -0.1578 -0.0848  0.1717
  921PF6-    F214842   0.584   3.661   1.364  0.2235 -0.4058 -0.6441
  921PF6-    F314843   0.289   3.735   1.445  0.2216 -0.3734  0.2790
  921PF6-    F414844   0.391   3.556   1.335  0.3130  0.7526 -0.1192
  921PF6-    F514845   0.485   3.826   1.464  0.1123 -0.1226 -0.1538
  921PF6-    F614846   0.409   3.768   1.261 -0.2591 -0.0116  0.6558
  921PF6-    F714847   0.452   3.624   1.544  0.2594  0.0028 -0.0279
  922PF6-    P114848   2.847   4.556   1.877 -0.0646  0.0857 -0.1291
  922PF6-    F214849   2.752   4.667   1.814  0.1051  0.3144  0.1596
  922PF6-    F314850   2.935   4.444   1.933 -0.5093 -0.3106 -0.1590
  922PF6-    F414851   2.937   4.556   1.743 -0.1154 -0.3048 -0.4682
  922PF6-    F514852   2.764   4.568   2.014  0.2179  0.3223  0.2164
  922PF6-    F614853   2.749   4.440   1.818 -0.1728 -0.4946  0.3637
  922PF6-    F714854   2.946   4.672   1.936  0.0634  0.2617 -0.3684
  923PF6-    P114855   2.911   1.306   0.883  0.0265  0.1100 -0.0641
  923PF6-    F214856   2.970   1.284   1.027 -0.3367 -0.4907  0.2681
  923PF6-    F314857   2.856   1.309   0.732  1.2926 -0.5158  0.2677
  923PF6-    F414858   2.833   1.443   0.925  0.2652 -0.0155 -0.4067
  923PF6-    F514859   2.987   1.166   0.837  0.3321  0.1172 -0.0091
  923PF6-    F614860   2.786   1.219   0.929 -0.5598 -0.3963  0.0439
  923PF6-    F714861   3.040   1.383   0.837 -0.5341  0.1039  0.4942
  924PF6-    P114862   2.760   5.475   1.702 -0.4045 -0.4931 -0.1685
  924PF6-    F214863   2.734   5.543   1.560 -0.1570  0.9123  0.0341
  924PF6-    F314864   2.781   5.412   1.845 -0.0397  0.1683 -0.3415
  924PF6-    F414865   2.632   5.388   1.664 -0.0866  0.1001 -0.0829
  924PF6-    F514866   2.889   5.570   1.730 -0.6203  0.0469 -0.5880
  924PF6-    F614867   2.669   5.581   1.767  0.0767 -0.5206  0.1089
  924PF6-    F714868   2.848   5.369   1.631 -0.2143  0.1869 -0.2854
  925PF6-    P114869   4.999   3.047   4.933 -0.6339  0.1214  0.1542
  925PF6-    F214870   4.860   3.003   4.990  0.2618 -0.0940  0.5611
  925PF6-    F314871   5.134   3.090   4.860  0.2426 -0.4479  0.0768
  925PF6-    F414872   4.985   3.196   5.002  0.3729 -0.4292 -0.0462
  925PF6-    F514873   5.018   2.899   4.865  0.2535 -0.6054 -0.3028
  925PF6-    F614874   4.923   3.092   4.803 -0.2212  0.3106  0.2791
  925PF6-    F714875   5.081   2.989   5.064 -0.1014 -0.2494 -0.0003
  926PF6-    P114876   2.834   1.084   1.710  0.3592 -0.1086  0.3722
  926PF6-    F214877   2.800   1.162   1.849 -0.1141 -0.1458  0.6405
  926PF6-    F314878   2.865   1.010   1.568  0.0707 -0.1409  0.3524
  926PF6-    F414879   2.817   0.942   1.776  0.3189  0.4570 -0.1229
  926PF6-    F514880   2.851   1.226   1.641  0.0850  0.1632 -0.3614
  926PF6-    F614881   2.984   1.089   1.746 -0.1116  0.1150  0.2589
  926PF6-    F714882   2.686   1.082   1.662  0.0175  0.6817  0.4037
  927PF6-    P114883   2.326   3.993   1.108  0.2114  0.0572  0.2733
  927PF6-    F214884   2.176   4.033   1.107  0.6322  0.0437  0.2610
  927PF6-    F314885   2.477   3.947   1.109 -0.1881  0.0683  0.1573
  927PF6-    F414886   2.356   4.089   0.988 -0.1467 -0.6096  0.2000
  927PF6-    F514887   2.295   3.894   1.226  0.0911 -0.4279  0.2052
  927PF6-    F614888   2.297   3.875   1.006  0.0752  0.2597 -0.5344
  927PF6-    F714889   2.367   4.104   1.212  0.3278  0.3923  0.0002
  928PF6-    P114890   0.791   2.704   4.485  0.2691  0.0260  0.1207
  928PF6-    F214891   0.786   2.799   4.358 -0.2968 -0.5844  0.5320
  928PF6-    F314892   0.798   2.616   4.614 -0.5489  0.2897  0.3584
  928PF6-    F414893   0.932   2.652   4.444  0.0325  0.3776  0.2734
  928PF6-    F514894   0.649   2.765   4.532 -0.6608 -0.2762 -0.8775
  928PF6-    F614895   0.719   2.588   4.406 -0.2363  0.1614  0.7802
  928PF6-    F714896   0.863   2.826   4.568  0.2564 -0.4218  0.4087
  929PF6-    P114897   1.844   0.693   3.275  0.0464  0.2155  0.2429
  929PF6-    F214898   1.943   0.635   3.386  0.2764  0.5239 -0.3760
  929PF6-    F314899   1.748   0.752   3.158 -0.0733  0.4425  0.2531
  929PF6-    F414900   1.758   0.556   3.275  0.5403 -0.4947 -0.4845
  929PF6-    F514901   1.932   0.829   3.264 -0.3211  0.4114 -0.0970
  929PF6-    F614902   1.942   0.632   3.157 -0.0545  0.0782  0.0339
  929PF6-    F714903   1.756   0.755   3.393  0.4998  0.2278  0.2119
  930PF6-    P114904   3.444   0.602   1.103  0.3181  0.4658 -0.0161
  930PF6-    F214905   3.298   0.666   1.103 -0.0824  0.0885  0.0311
  930PF6-    F314906   3.588   0.545   1.098  0.3607  0.1371 -0.3550
  930PF6-    F414907   3.497   0.730   1.029  0.5678 -0.1446  0.0010
  930PF6-    F514908   3.388   0.470   1.176  0.0958 -0.3659 -0.1867
  930PF6-    F614909   3.408   0.534   0.962 -0.0397 -0.3226 -0.0463
  930PF6-    F714910   3.480   0.663   1.247  0.3690  0.3908 -0.0277
  931PF6-    P114911   1.702   2.675   4.451  0.1628 -0.1830 -0.5156
  931PF6-    F214912   1.632   2.683   4.596  0.0202  0.7799  0.2254
  931PF6-    F314913   1.774   2.673   4.309  0.2894  0.4614 -0.0210
  931PF6-    F414914   1.844   2.672   4.525 -0.1426  0.4924 -0.1957
  931PF6-    F514915   1.557   2.694   4.382 -0.4065  0.2486  0.0986
  931PF6-    F614916   1.717   2.832   4.447  0.0793 -0.8932 -0.3110
  931PF6-    F714917   1.698   2.515   4.443 -0.0301 -0.1131 -0.6122
  932PF6-    P114918   4.380   1.715   0.481 -0.2298 -0.0318  0.0275
  932PF6-    F214919   4.349   1.826   0.596  0.1471  0.2889  0.2973
  932PF6-    F314920   4.413   1.603   0.365 -0.4891  0.0905  0.5113
  932PF6-    F414921   4.387   1.830   0.376  0.0642 -0.0678  0.3414
  932PF6-    F514922   4.372   1.600   0.591  0.7263 -0.4235  0.1887
  932PF6-    F614923   4.220   1.699   0.459 -0.0187 -0.1553  0.2408
  932PF6-    F714924   4.537   1.738   0.516 -0.3840 -0.0005 -0.5523
  933PF6-    P114925   0.611   3.718   3.097 -0.3490  0.0383 -0.0509
  933PF6-    F214926   0.697   3.815   3.191 -0.2893  0.0004  0.2946
  933PF6-    F314927   0.524   3.623   3.004  0.1049 -0.1484  0.2842
  933PF6-    F414928   0.746   3.672   3.022 -0.3133 -0.1291  0.3619
  933PF6-    F514929   0.482   3.758   3.176 -0.0787  0.3454  0.0875
  933PF6-    F614930   0.583   3.835   2.987  0.1117 -0.4396  0.3980
  933PF6-    F714931   0.636   3.605   3.208 -0.5837 -0.4507 -0.3241
  934PF6-    P114932   1.600   4.396   5.462 -0.0716 -0.1036 -0.3582
  934PF6-    F214933   1.455   4.339   5.506 -0.3444 -0.1672 -0.0117
  934PF6-    F314934   1.750   4.444   5.416 -0.3402 -0.6488 -0.1980
  934PF6-    F414935   1.612   4.488   5.592 -0.0293  0.2314 -0.0129
  934PF6-    F514936   1.591   4.297   5.330 -0.1465 -0.2185 -0.2210
  934PF6-    F614937   1.534   4.516   5.383  0.3604 -0.0583  0.2887
  934PF6-    F714938   1.668   4.279   5.542 -0.7130  0.2294  0.1570
  935PF6-    P114939   0.645   1.499   0.827 -0.5078  0.1487 -0.0639
  935PF6-    F214940   0.545   1.522   0.696 -0.0180 -0.3177 -0.3157
  935PF6-    F314941   0.750   1.483   0.954  0.1991 -0.0761 -0.1170
  935PF6-    F414942   0.774   1.526   0.733  0.3132 -0.0277  0.1728
  935PF6-    F514943   0.526   1.483   0.931 -0.3613  0.0602  0.4660
  935PF6-    F614944   0.647   1.343   0.802 -0.2545  0.3139  0.0638
  935PF6-    F714945   0.640   1.656   0.853 -0.0502  0.6423 -0.3287
  936PF6-    P114946   1.100   0.901   2.516 -0.3470  0.3492  0.1788
  936PF6-    F214947   1.058   0.967   2.379 -0.3261  0.1945  0.6285
  936PF6-    F314948   1.145   0.832   2.651  0.3304  0.1497 -0.6994
  936PF6-    F414949   0.983   0.793   2.497  0.1107  0.6961 -0.5080
  936PF6-    F514950   1.203   1.022   2.547 -0.0351  0.0144  0.1668
  936PF6-    F614951   0.989   0.987   2.595 -0.4169  0.3019  0.1644
  936PF6-    F714952   1.210   0.818   2.436  0.1051  0.5510  0.6331
  937PF6-    P114953   0.816   5.246   1.490  0.0769  0.3895 -0.5498
  937PF6-    F214954   0.812   5.159   1.625 -0.1832  0.3078 -0.3066
  937PF6-    F314955   0.812   5.332   1.351 -0.2124  0.3995  0.2411
  937PF6-    F414956   0.665   5.293   1.515  0.4224 -0.2790  0.0450
  937PF6-    F514957   0.968   5.205   1.462 -0.7496 -0.3126 -0.7885
  937PF6-    F614958   0.758   5.122   1.404 -0.2659 -0.3883  1.0387
  937PF6-    F714959   0.873   5.375   1.571  0.5689  0.4963  0.3928
  938PF6-    P114960   1.810   3.063   0.076  0.3782 -0.2955  0.0636
  938PF6-    F214961   1.912   2.938   0.044  0.5014 -0.0140 -0.0289
  938PF6-    F314962   1.715   3.190   0.097  0.0385  0.5447 -0.0038
  938PF6-    F414963   1.930   3.161   0.119 -0.3505 -0.4132 -0.1024
  938PF6-    F514964   1.680   2.978   0.032 -0.2453  0.1149  0.2555
  938PF6-    F614965   1.789   3.015   0.227 -0.2651  0.0832  0.3856
  938PF6-    F714966   1.828   3.110  -0.077 -0.2712  0.2435  0.1775
  939PF6-    P114967   1.399   0.265   4.114 -0.2862  0.0851  0.2687
  939PF6-    F214968   1.396   0.122   4.185  0.1353  0.1422 -0.0351
  939PF6-    F314969   1.402   0.404   4.038  0.0416 -0.1488 -0.1260
  939PF6-    F414970   1.255   0.298   4.172 -0.3873 -0.3762 -0.2538
  939PF6-    F514971   1.545   0.235   4.058  0.6052 -0.2172 -0.0214
  939PF6-    F614972   1.331   0.203   3.981  0.1391 -0.1799  0.0017
  939PF6-    F714973   1.460   0.341   4.243  0.5899 -0.9002  0.1919
  940PF6-    P114974   3.192   0.273   0.019 -0.0537  0.3902 -0.0947
  940PF6-    F214975   3.112   0.281  -0.111  0.2975  0.4265 -0.5526
  940PF6-    F314976   3.278   0.276   0.154 -0.0457 -0.0028  0.0790
  940PF6-    F414977   3.117   0.142   0.070 -0.3033  0.2938  1.1038
  940PF6-    F514978   3.276   0.400  -0.030  0.9077  0.3720  0.2958
  940PF6-    F614979   3.083   0.363   0.089  0.2608  0.1762 -0.0735
  940PF6-    F714980   3.304   0.182  -0.051  0.3319  0.2331  0.8289
  941PF6-    P114981   5.076   3.506   0.463 -0.0413  0.1119  0.0627
  941PF6-    F214982   5.007   3.634   0.538  1.0220 -0.0075  0.2467
  941PF6-    F314983   5.145   3.381   0.386 -0.2807 -0.2249 -0.1555
  941PF6-    F414984   5.221   3.581   0.477  0.5025 -0.7336  0.1954
  941PF6-    F514985   4.936   3.436   0.450  0.2774 -0.8222  0.2241
  941PF6-    F614986   5.053   3.584   0.320 -0.1655  0.0080  0.1465
  941PF6-    F714987   5.098   3.439   0.609 -0.2309 -0.5313  0.0105
  942PF6-    P114988   2.876   5.220   0.820 -0.4706  0.1828 -0.3790
  942PF6-    F214989   2.977   5.104   0.856 -0.1601  0.2081  0.3721
  942PF6-    F314990   2.773   5.340   0.787  0.1871 -0.3678 -0.1029
  942PF6-    F414991   2.784   5.181   0.951  0.0634 -0.0227  0.3487
  942PF6-    F514992   2.966   5.267   0.693  0.2389 -0.1050 -0.3845
  942PF6-    F614993   2.797   5.120   0.728 -0.2030  0.2845  0.3130
  942PF6-    F714994   2.957   5.320   0.910  0.2478 -0.1861 -0.4581
  943PF6-    P114995   1.386   2.623   2.649 -0.1247 -0.1761  0.0994
  943PF6-    F214996   1.487   2.506   2.619 -0.1104 -0.5493  0.3294
  943PF6-    F314997   1.287   2.741   2.672 -0.0064  0.6013  0.2390
  943PF6-    F414998   1.283   2.523   2.722 -0.2316 -0.0543 -0.3068
  943PF6-    F514999   1.485   2.730   2.571 -0.0479 -0.2440 -1.0250
  943PF6-    F615000   1.312   2.592   2.513 -0.2572  0.2787 -0.4442
  943PF6-    F715001   1.466   2.648   2.791  0.7142  0.3024  0.7562
  944PF6-    P115002   2.960   2.101   1.724 -0.1338  0.3447 -0.0950
  944PF6-    F215003   3.079   2.124   1.830 -0.0993  0.1577  0.1721
  944PF6-    F315004   2.847   2.081   1.615  0.2095 -0.1006 -0.4230
  944PF6-    F415005   3.061   2.079   1.608  0.2295  0.0703 -0.2989
  944PF6-    F515006   2.855   2.116   1.841  0.2200 -0.4833 -0.0356
  944PF6-    F615007   2.955   2.250   1.699  0.6530 -0.1843  0.3989
  944PF6-    F715008   2.963   1.948   1.757  0.3452  0.0839  0.1923
  945PF6-    P115009   5.327   1.363   2.230  0.2994 -0.4838  0.1842
  945PF6-    F215010   5.181   1.399   2.290  0.2016 -0.6517  0.0725
  945PF6-    F315011   5.471   1.323   2.174 -0.4907  0.1081  0.5360
  945PF6-    F415012   5.369   1.520   2.247 -1.0338 -0.2015  0.2088
  945PF6-    F515013   5.273   1.208   2.210 -0.2530  0.3269  0.4740
  945PF6-    F615014   5.280   1.396   2.077  0.2031 -0.0691 -0.1262
  945PF6-    F715015   5.373   1.328   2.380 -0.3693  0.2194  0.4838
  946PF6-    P115016   4.218   2.822   0.273 -0.4029 -0.0609 -0.0704
  946PF6-    F215017   4.076   2.779   0.333 -0.0241 -0.4410 -0.0273
  946PF6-    F315018   4.364   2.867   0.220  0.0203 -0.1894  0.2619
  946PF6-    F415019   4.166   2.807   0.125 -0.5198 -0.0639  0.1181
  946PF6-    F515020   4.262   2.824   0.428 -0.1780 -0.2666  0.7958
  946PF6-    F615021   4.262   2.667   0.274 -0.4265  0.1750  0.4155
  946PF6-    F715022   4.178   2.982   0.280  0.3801 -0.0372 -0.2479
  947PF6-    P115023   3.511   4.280   4.495 -0.2343  0.1354  1.0336
  947PF6-    F215024   3.479   4.253   4.339  0.2267 -0.4480 -0.1199
  947PF6-    F315025   3.557   4.309   4.650  0.2414  0.1353 -0.0819
  947PF6-    F415026   3.350   4.259   4.537 -0.1766  0.2426 -0.1121
  947PF6-    F515027   3.663   4.305   4.459  0.3961  0.0658  0.6671
  947PF6-    F615028   3.484   4.435   4.475 -0.3337  0.3083  0.3205
  947PF6-    F715029   3.535   4.121   4.522  0.5055 -0.6630  0.4155
  948PF6-    P115030   2.380   1.626   2.434  0.1123  0.0038  0.2672
  948PF6-    F215031   2.486   1.504   2.406  0.0123  0.7400 -0.0806
  948PF6-    F315032   2.278   1.743   2.460  0.3136  0.0414  0.1727
  948PF6-    F415033   2.435   1.630   2.586  0.2698  0.2644 -0.1287
  948PF6-    F515034   2.328   1.621   2.281 -0.0583  0.7270 -0.5535
  948PF6-    F615035   2.274   1.516   2.481 -0.1353  0.4501  0.2179
  948PF6-    F715036   2.483   1.735   2.383  0.6863  0.0800 -0.2378
  949PF6-    P115037   5.015   4.775   0.298  0.0411 -0.3099  0.2766
  949PF6-    F215038   5.058   4.854   0.430 -0.3293 -0.7851 -0.1672
  949PF6-    F315039   4.971   4.688   0.172 -0.0339 -0.7576  0.7574
  949PF6-    F415040   4.915   4.901   0.246 -0.3421  0.2244 -0.0723
  949PF6-    F515041   5.110   4.651   0.334  0.1106 -0.3031 -0.1102
  949PF6-    F615042   4.901   4.713   0.383  0.0309  0.4516 -0.1544
  949PF6-    F715043   5.130   4.839   0.209  0.1400  0.0860  0.6975
  950PF6-    P115044   0.566   2.069   5.140 -0.1824 -0.2499  0.1381
  950PF6-    F215045   0.553   1.921   5.194 -0.1592  0.0409  1.2005
  950PF6-    F315046   0.587   2.219   5.074 -0.0480  0.2881  0.1056
  950PF6-    F415047   0.522   2.127   5.288  0.0886 -0.7100 -0.3251
  950PF6-    F515048   0.602   2.006   4.996 -0.5210  0.1648  0.0242
  950PF6-    F615049   0.410   2.064   5.100  0.0844 -0.6945 -0.0805
  950PF6-    F715050   0.722   2.073   5.193  0.7426  0.1909  0.1932
  951PF6-    P115051   3.009   3.166   0.837 -0.0612  0.1103  0.3816
  951PF6-    F215052   3.012   3.109   0.984 -0.4151 -0.4489 -0.0096
  951PF6-    F315053   3.014   3.224   0.683  0.4721 -0.5785  0.5399
  951PF6-    F415054   2.987   3.316   0.895  0.3942 -0.1929  0.2533
  951PF6-    F515055   3.047   3.023   0.780 -0.4023  0.5644 -0.2268
  951PF6-    F615056   2.849   3.139   0.829 -0.1007  0.3680 -0.2868
  951PF6-    F715057   3.168   3.188   0.845 -0.0680 -0.0265 -0.3312
  952PF6-    P115058   0.847   0.351   0.589 -0.1883  0.3458  0.0026
  952PF6-    F215059   0.683   0.333   0.601 -0.1224  0.1022 -0.0218
  952PF6-    F315060   1.005   0.360   0.577  0.5244  0.2534  0.0022
  952PF6-    F415061   0.819   0.469   0.486  0.2643  0.3582 -0.2709
  952PF6-    F515062   0.865   0.218   0.680 -0.0882  0.1174  0.0296
  952PF6-    F615063   0.845   0.254   0.458  0.0400  0.0163 -0.0305
  952PF6-    F715064   0.837   0.449   0.715  0.2883  0.2138 -0.2159
  953PF6-    P115065   0.098   0.854   3.655  0.3550 -0.5310 -0.2432
  953PF6-    F215066   0.167   0.717   3.689 -0.4007 -0.2649  0.4072
  953PF6-    F315067   0.027   0.994   3.616  0.3041 -0.0613  0.4123
  953PF6-    F415068   0.058   0.870   3.809 -0.0766  0.6630 -0.2937
  953PF6-    F515069   0.138   0.843   3.503 -0.0914 -0.3986 -0.1615
  953PF6-    F615070  -0.036   0.774   3.621  0.3679  0.1376 -0.9849
  953PF6-    F715071   0.235   0.936   3.684 -0.1291  0.8862  0.2796
  954PF6-    P115072   4.470   0.442   3.699  0.5356 -0.5922  0.3263
  954PF6-    F215073   4.391   0.316   3.771 -0.1411 -0.0677 -0.2614
  954PF6-    F315074   4.542   0.567   3.619  0.2446 -0.4055  0.1442
  954PF6-    F415075   4.506   0.348   3.576  0.4985 -0.2958  0.4236
  954PF6-    F515076   4.426   0.544   3.821  0.2370  0.5964 -0.5096
  954PF6-    F615077   4.605   0.412   3.788  0.2775 -0.2397  0.4549
  954PF6-    F715078   4.335   0.479   3.626 -0.5302 -0.2528 -0.3612
  955PF6-    P115079   4.734   2.688   0.764  0.3945 -0.0472  0.2853
  955PF6-    F215080   4.575   2.725   0.784 -0.2204  0.1489  0.9819
  955PF6-    F315081   4.889   2.649   0.753 -0.3591 -0.1688  0.0968
  955PF6-    F415082   4.765   2.793   0.887  0.4973 -0.1817 -0.0448
  955PF6-    F515083   4.695   2.583   0.646  0.4605  0.6268 -0.0201
  955PF6-    F615084   4.749   2.805   0.656  0.0850  0.1459 -0.1215
  955PF6-    F715085   4.716   2.571   0.869 -0.2526  0.3720  0.4565
  956PF6-    P115086   0.354   3.254   2.765 -0.2120 -0.1516 -0.2096
  956PF6-    F215087   0.385   3.202   2.915 -0.1547  0.1157  0.0473
  956PF6-    F315088   0.312   3.308   2.623  0.6253 -0.2878 -0.1442
  956PF6-    F415089   0.508   3.256   2.720 -0.1250 -0.0580 -0.1491
  956PF6-    F515090   0.202   3.246   2.804  0.2228 -0.5511 -0.2230
  956PF6-    F615091   0.352   3.405   2.824  0.0581  0.2410  0.0058
  956PF6-    F715092   0.337   3.101   2.716 -0.4421 -0.7355  0.5613
  957PF6-    P115093   4.333   4.466   3.115  0.4692  0.0989  0.2374
  957PF6-    F215094   4.183   4.494   3.164 -0.0691  0.5105 -0.4083
  957PF6-    F315095   4.477   4.440   3.057  0.2263 -0.0706  0.1187
  957PF6-    F415096   4.393   4.493   3.261  0.2274 -0.4791  0.3883
  957PF6-    F515097   4.283   4.447   2.963  0.0578 -0.1345  0.0042
  957PF6-    F615098   4.360   4.615   3.085  0.1187  0.0116 -0.4668
  957PF6-    F715099   4.312   4.312   3.140 -0.0130 -0.0213 -0.5510
  958PF6-    P115100   4.667   5.350   2.428  0.0970  0.2197  0.2794
  958PF6-    F215101   4.543   5.280   2.364  0.1090 -0.5520  0.3287
  958PF6-    F315102   4.798   5.420   2.488 -0.2322  0.3369  0.1620
  958PF6-    F415103   4.603   5.496   2.405  0.1135 -0.2843  0.1495
  958PF6-    F515104   4.740   5.208   2.451  0.7587  0.5065  0.1801
  958PF6-    F615105   4.738   5.359   2.287 -0.4668 -0.1881  0.5100
  958PF6-    F715106   4.605   5.348   2.575  0.5021 -0.4363 -0.2680
  959PF6-    P115107   3.398   5.180   3.601 -0.2923  0.0341  0.0388
  959PF6-    F215108   3.392   5.340   3.622  0.6169 -0.1701 -0.1517
  959PF6-    F315109   3.414   5.021   3.573 -0.1480 -0.2330 -0.0130
  959PF6-    F415110   3.283   5.157   3.710  0.0080 -0.2566 -0.2220
  959PF6-    F515111   3.509   5.207   3.485 -0.3770 -0.1112  0.3433
  959PF6-    F615112   3.506   5.169   3.718 -0.1179  0.0754  0.1932
  959PF6-    F715113   3.283   5.193   3.492  0.3132  0.0486 -0.2027
  960PF6-    P115114   3.481   2.238   3.761 -0.1117 -0.2073 -0.0596
  960PF6-    F215115   3.573   2.135   3.679  0.1193  0.3657  0.1857
  960PF6-    F315116   3.394   2.343   3.839  0.3235 -0.2048 -0.0890
  960PF6-    F415117   3.579   2.227   3.885 -0.3359 -0.0945 -0.2607
  960PF6-    F515118   3.384   2.249   3.637 -0.3546  0.6088  0.5471
  960PF6-    F615119   3.391   2.115   3.821 -0.5567 -0.1988  0.3946
  960PF6-    F715120   3.570   2.363   3.711  0.5184 -0.5872 -0.6929
  961PF6-    P115121   2.680   0.540   4.508 -0.1683 -0.2765 -0.1973
  961PF6-    F215122   2.800   0.615   4.442  0.5081  0.2287 -0.3060
  961PF6-    F315123   2.547   0.471   4.563  0.5943  0.2350 -0.1861
  961PF6-    F415124   2.683   0.436   4.384 -0.4077  0.2721 -0.2280
  961PF6-    F515125   2.676   0.650   4.626 -0.0108  0.1569 -0.3080
  961PF6-    F615126   2.583   0.639   4.426  0.5925  0.3365 -0.3891
  961PF6-    F715127   2.775   0.449   4.592 -0.3275  0.1829  0.0793
  962PF6-    P115128   1.253   4.752   1.169  0.6872  0.3918 -0.1147
  962PF6-    F215129   1.374   4.849   1.208 -0.2848 -0.2405 -0.1788
  962PF6-    F315130   1.130   4.653   1.127 -0.0005  0.4093 -0.1004
  962PF6-    F415131   1.161   4.838   1.267 -0.2993 -0.4983 -0.3550
  962PF6-    F515132   1.350   4.658   1.082  0.4366 -0.4166 -0.1736
  962PF6-    F615133   1.294   4.650   1.288  0.1213  0.5006  0.2403
  962PF6-    F715134   1.230   4.849   1.044 -0.5030  0.1314 -0.0280
  963PF6-    P115135   0.153   3.712   4.582 -0.2333 -0.4677 -0.3324
  963PF6-    F215136   0.043   3.821   4.531  0.2005 -0.0578 -0.1189
  963PF6-    F315137   0.269   3.622   4.637 -0.5670  0.5904 -0.5260
  963PF6-    F415138   0.232   3.834   4.658 -0.5727  0.6512  0.1663
  963PF6-    F515139   0.076   3.588   4.514 -0.0588  0.4670 -0.1135
  963PF6-    F615140   0.237   3.733   4.452 -0.5757  0.1081  0.7330
  963PF6-    F715141   0.071   3.692   4.714  0.1900  0.0746 -0.1387
  964PF6-    P115142   3.311   3.071   1.891  0.1023 -0.3614  0.1929
  964PF6-    F215143   3.234   2.954   1.964  0.0666  0.3199  0.4378
  964PF6-    F315144   3.383   3.192   1.820  0.0046  0.3715 -0.0775
  964PF6-    F415145   3.167   3.111   1.830  0.2754 -0.1668  0.0904
  964PF6-    F515146   3.449   3.029   1.968  0.1118  0.0049  0.5019
  964PF6-    F615147   3.341   2.969   1.766 -0.4464 -0.1481 -0.0215
  964PF6-    F715148   3.270   3.165   2.012 -0.2891 -0.2517 -0.1485
  965PF6-    P115149   4.465   1.578   5.151  0.0987 -0.0354  0.7899
  965PF6-    F215150   4.566   1.677   5.079  0.0872  0.3371  0.0208
  965PF6-    F315151   4.361   1.473   5.214  0.3467  0.1371  0.0246
  965PF6-    F415152   4.575   1.465   5.137  0.5508  0.6057  0.2468
  965PF6-    F515153   4.359   1.697   5.158  0.2352  0.3637 -0.2018
  965PF6-    F615154   4.413   1.534   5.006  0.3296  0.0179  0.6062
  965PF6-    F715155   4.520   1.614   5.295 -0.1286 -0.0721  0.0221
  966PF6-    P115156   5.495   2.455   1.778  0.0624  0.0055  0.3548
  966PF6-    F215157   5.402   2.400   1.892  0.3271 -0.4905  0.1546
  966PF6-    F315158   5.588   2.516   1.660  0.0666  0.8979 -0.1248
  966PF6-    F415159   5.627   2.397   1.845  0.5692 -0.1164  0.4357
  966PF6-    F515160   5.367   2.518   1.704  0.0726 -0.2122  0.3478
  966PF6-    F615161   5.521   2.590   1.855  0.3151 -0.3159 -0.1378
  966PF6-    F715162   5.478   2.322   1.695 -0.5254  0.0551 -0.4333
  967PF6-    P115163   5.500   2.562   0.250  0.2278  0.0515 -0.1109
  967PF6-    F215164   5.621   2.525   0.148 -0.4643 -1.2797  0.3758
  967PF6-    F315165   5.388   2.595   0.356  0.8177  0.0528 -0.0836
  967PF6-    F415166   5.570   2.710   0.272 -0.1481  0.2741 -0.1218
  967PF6-    F515167   5.435   2.417   0.222  0.5838  1.0772 -0.3419
  967PF6-    F615168   5.580   2.513   0.380 -0.1876  0.5997  0.0848
  967PF6-    F715169   5.416   2.624   0.131 -0.0164 -0.6010  0.1384
  968PF6-    P115170   0.684   1.859   2.631 -0.1854 -0.3628  0.0704
  968PF6-    F215171   0.739   1.780   2.756  0.8557  0.5383 -0.2998
  968PF6-    F315172   0.630   1.952   2.509  0.3215 -0.1292  0.2616
  968PF6-    F415173   0.537   1.863   2.696 -0.1536  0.2804 -0.4553
  968PF6-    F515174   0.823   1.858   2.558  0.2456  0.0811 -0.3521
  968PF6-    F615175   0.649   1.720   2.552 -0.2555 -0.3023  0.7312
  968PF6-    F715176   0.733   1.992   2.707 -0.3481  0.1192  0.0990
  969PF6-    P115177   1.948   3.252   1.465  0.3996  0.2085  0.3489
  969PF6-    F215178   1.819   3.339   1.492  0.3143  0.0490 -0.0213
  969PF6-    F315179   2.082   3.162   1.438  0.0875 -0.4546  0.3875
  969PF6-    F415180   1.933   3.275   1.304  0.1160 -0.3518 -0.1551
  969PF6-    F515181   1.980   3.231   1.619  0.3467 -0.9080 -0.3320
  969PF6-    F615182   1.863   3.118   1.454 -0.1416  0.7296 -0.1647
  969PF6-    F715183   2.031   3.380   1.470 -0.4563 -0.3955 -0.2643
  970PF6-    P115184   4.327   5.289   4.251 -0.2442  0.2512 -0.2542
  970PF6-    F215185   4.365   5.352   4.396 -0.4952 -0.2529  0.0666
  970PF6-    F315186   4.288   5.230   4.103 -0.5085 -0.3185 -0.0711
  970PF6-    F415187   4.410   5.153   4.279 -0.2294 -0.4403 -0.1628
  970PF6-    F515188   4.252   5.423   4.204  0.4332  0.5126 -0.0935
  970PF6-    F615189   4.461   5.344   4.184 -0.3006 -0.2419 -0.6334
  970PF6-    F715190   4.193   5.223   4.309 -0.1828  0.0076 -0.3790
  971PF6-    P115191   4.883   4.761   4.927 -0.3330 -0.1683  0.4364
  971PF6-    F215192   4.893   4.613   4.873 -0.4748 -0.0287  0.4267
  971PF6-    F315193   4.886   4.913   4.980  0.2090 -0.8469  0.1472
  971PF6-    F415194   4.898   4.806   4.778 -0.0574 -0.2856  0.1223
  971PF6-    F515195   4.859   4.703   5.073  0.2111 -0.2798  0.2639
  971PF6-    F615196   5.038   4.766   4.940 -0.0538  0.6316 -0.2587
  971PF6-    F715197   4.721   4.761   4.915  0.4076 -0.3139 -0.1673
  972PF6-    P115198   0.106   2.324   3.465  0.3586  0.2283 -0.3300
  972PF6-    F215199  -0.017   2.418   3.422  0.0200  0.0470  0.1261
  972PF6-    F315200   0.229   2.236   3.514  0.6860  0.5071  0.2022
  972PF6-    F415201   0.209   2.442   3.430 -0.2187  0.1472  0.3791
  972PF6-    F515202   0.004   2.204   3.496  0.0472 -0.2447  0.9055
  972PF6-    F615203   0.131   2.268   3.315 -0.0063 -0.6152  0.4990
  972PF6-    F715204   0.097   2.375   3.615 -0.2234  0.1420 -0.0157
  973PF6-    P115205   2.989   1.990   0.377  0.0095 -0.0812  0.1978
  973PF6-    F215206   2.919   1.950   0.514 -0.9401  0.0447 -0.2147
  973PF6-    F315207   3.069   2.037   0.246 -0.6343 -0.5547  0.0766
  973PF6-    F415208   2.859   2.054   0.321  0.5659 -0.1158 -0.1551
  973PF6-    F515209   3.123   1.928   0.425  0.1510  0.3561 -0.4683
  973PF6-    F615210   2.943   1.852   0.308  0.0901  0.2177  0.9397
  973PF6-    F715211   3.034   2.128   0.449 -0.0382  0.2972 -0.0216
  974PF6-    P115212   4.833   3.098   4.087  0.2404  0.2061 -0.3214
  974PF6-    F215213   4.946   3.023   3.996 -0.0989  0.0718  0.4233
  974PF6-    F315214   4.717   3.173   4.176 -0.3570 -0.1773 -0.3053
  974PF6-    F415215   4.724   2.988   4.041 -0.5855 -0.0127  0.2241
  974PF6-    F515216   4.940   3.203   4.127 -0.0049 -0.2245 -0.0728
  974PF6-    F615217   4.795   3.194   3.960 -0.3780 -0.4755  0.4747
  974PF6-    F715218   4.867   3.006   4.213 -0.4963  0.0975  0.1376
  975PF6-    P115219   0.240   4.598   4.682  0.0787  0.3634  0.3633
  975PF6-    F215220   0.284   4.454   4.628  0.3271  0.2872 -0.3451
  975PF6-    F315221   0.187   4.733   4.740 -0.0757 -0.6814  0.1889
  975PF6-    F415222   0.122   4.518   4.756 -0.2475 -0.2920  0.4433
  975PF6-    F515223   0.363   4.672   4.605  0.0799  0.1952  0.3789
  975PF6-    F615224   0.153   4.621   4.541 -0.4095 -0.2139  0.1296
  975PF6-    F715225   0.333   4.577   4.813 -0.1687  0.2078 -0.3279
  976PF6-    P115226   0.951   4.550   2.087  0.2323  0.3251 -0.1806
  976PF6-    F215227   1.063   4.499   2.185 -0.1131  0.1107 -0.2710
  976PF6-    F315228   0.834   4.599   1.986  0.2608 -0.6214  0.6825
  976PF6-    F415229   0.926   4.676   2.174 -0.0616  0.0386  0.4063
  976PF6-    F515230   0.975   4.414   1.998  0.0802 -0.4636  0.0502
  976PF6-    F615231   0.840   4.480   2.179 -0.7180 -0.1023 -0.7249
  976PF6-    F715232   1.061   4.629   1.999 -0.1678 -0.5828 -0.6683
  977PF6-    P115233   2.874   3.264   2.598  0.4309 -0.0441 -0.1218
  977PF6-    F215234   2.951   3.332   2.719 -0.0191  0.3486 -0.4202
  977PF6-    F315235   2.790   3.197   2.478  0.2443 -0.0498  0.0997
  977PF6-    F415236   2.772   3.385   2.597  0.0779 -0.0753  0.0813
  977PF6-    F515237   2.983   3.138   2.591  0.2950 -1.0893 -0.1074
  977PF6-    F615238   2.782   3.184   2.707  0.5922 -0.0655  0.4744
  977PF6-    F715239   2.972   3.345   2.498  0.3668 -0.3716  0.1094
  978PF6-    P115240   4.773   0.594   0.498  0.0154  0.0085 -0.0929
  978PF6-    F215241   4.814   0.730   0.576  0.2825  0.3753  0.5839
  978PF6-    F315242   4.728   0.450   0.427  0.5494 -0.4546  0.1062
  978PF6-    F415243   4.620   0.642   0.492 -0.1395 -0.1794 -0.1403
  978PF6-    F515244   4.929   0.546   0.506 -0.2323 -0.3964 -0.1189
  978PF6-    F615245   4.752   0.529   0.646  0.1283 -0.4373  0.1876
  978PF6-    F715246   4.795   0.658   0.354  0.1528  0.0194 -0.3099
  979PF6-    P115247   5.409   1.134   0.469  0.2300 -0.4167 -0.3251
  979PF6-    F215248   5.321   1.042   0.372  0.0374 -0.4337  0.0738
  979PF6-    F315249   5.498   1.219   0.567 -0.3233 -0.0781 -0.0234
  979PF6-    F415250   5.438   1.236   0.343  0.2568 -0.4275  0.5083
  979PF6-    F515251   5.384   1.031   0.593  0.0027 -0.6102 -0.0457
  979PF6-    F615252   5.534   1.046   0.432 -0.3357 -0.3584  0.1421
  979PF6-    F715253   5.281   1.218   0.504  0.4534  0.0223 -0.2774
  980PF6-    P115254   2.135   4.857   0.597  0.4532  0.0452 -0.1689
  980PF6-    F215255   1.999   4.784   0.565 -0.0875 -0.7744 -0.6172
  980PF6-    F315256   2.271   4.937   0.635  0.2866 -0.9059  0.7932
  980PF6-    F415257   2.099   4.963   0.482  0.2784  0.6055 -0.0584
  980PF6-    F515258   2.164   4.761   0.723  0.3361  0.3236  0.0015
  980PF6-    F615259   2.216   4.757   0.504 -0.5377 -0.4770 -0.2025
  980PF6-    F715260   2.054   4.953   0.700 -0.1924 -0.0201  0.1816
  981PF6-    P115261   5.210   1.632   1.270  0.1902  0.1376 -0.0479
  981PF6-    F215262   5.255   1.656   1.423  0.0424  0.6890  0.1666
  981PF6-    F315263   5.158   1.606   1.119 -0.7187  0.2239 -0.1940
  981PF6-    F415264   5.060   1.630   1.314 -0.0095  0.4755 -0.4227
  981PF6-    F515265   5.362   1.635   1.217  0.2298  0.1906 -0.0256
  981PF6-    F615266   5.210   1.479   1.295  0.2857  0.2394 -0.3225
  981PF6-    F715267   5.200   1.790   1.260 -0.0525  0.1668  0.4673
  982PF6-    P115268   3.986   4.923   2.067 -0.0196 -0.5094 -0.1014
  982PF6-    F215269   4.057   4.987   2.188  0.0796 -0.1295 -0.6566
  982PF6-    F315270   3.913   4.850   1.943 -0.2551 -0.5684  0.2497
  982PF6-    F415271   4.126   4.912   1.996  0.3425 -0.3335 -0.3996
  982PF6-    F515272   3.839   4.942   2.142  0.2287 -0.1139 -0.2224
  982PF6-    F615273   3.975   5.069   1.997 -0.2139  0.2280 -0.2885
  982PF6-    F715274   4.002   4.780   2.134  0.0581 -0.3703 -0.0164
  983PF6-    P115275   1.636   3.608   4.198 -0.0123  0.0979 -0.4426
  983PF6-    F215276   1.757   3.720   4.186 -0.3296  0.6550 -0.0598
  983PF6-    F315277   1.516   3.501   4.216 -0.5646 -0.4823  0.8586
  983PF6-    F415278   1.613   3.653   4.355 -0.6297 -0.1746  0.2062
  983PF6-    F515279   1.649   3.560   4.044 -0.5687 -0.0188 -0.6132
  983PF6-    F615280   1.743   3.500   4.243  0.0390 -0.1768 -0.2142
  983PF6-    F715281   1.524   3.722   4.154  0.5827 -0.4254 -0.3006
  984PF6-    P115282   3.413   0.643   2.420 -0.1915 -0.2771  0.0756
  984PF6-    F215283   3.569   0.665   2.431 -0.1690 -0.2684 -0.3776
  984PF6-    F315284   3.261   0.623   2.416  0.4184 -0.2332  0.4529
  984PF6-    F415285   3.437   0.534   2.304 -0.1308  0.3120 -0.5333
  984PF6-    F515286   3.385   0.745   2.540  0.4348 -0.4509 -0.0726
  984PF6-    F615287   3.396   0.763   2.309 -0.2368  0.5100 -0.2373
  984PF6-    F715288   3.423   0.525   2.525  0.1916  0.3520  0.1093
  985PF6-    P115289   2.596   3.796   4.807  0.4487 -0.0096 -0.0703
  985PF6-    F215290   2.447   3.788   4.860  0.8032 -0.0998 -0.3459
  985PF6-    F315291   2.748   3.806   4.756  0.2014 -0.0419 -0.6555
  985PF6-    F415292   2.631   3.886   4.928 -0.0040  0.2173 -0.6199
  985PF6-    F515293   2.564   3.699   4.691 -0.2959 -0.0743  0.5546
  985PF6-    F615294   2.558   3.928   4.725 -0.6481 -0.0736 -0.1586
  985PF6-    F715295   2.634   3.667   4.897 -0.0854 -0.1969 -0.6585
  986PF6-    P115296   2.774   5.001   5.076 -0.3338 -0.1430 -0.4326
  986PF6-    F215297   2.871   5.025   5.203 -0.1100  0.1138  0.3222
  986PF6-    F315298   2.682   4.990   4.952  0.0861  0.2248 -0.1809
  986PF6-    F415299   2.882   4.902   5.014 -0.0622 -0.1381  0.2262
  986PF6-    F515300   2.667   5.092   5.150 -0.1948  0.3940 -0.1335
  986PF6-    F615301   2.842   5.128   5.002  0.3962 -0.0835 -0.0436
  986PF6-    F715302   2.705   4.870   5.142 -0.0367 -0.1674  0.5373
  987PF6-    P115303   2.352   3.996   3.441  0.3246  0.3752 -0.1661
  987PF6-    F215304   2.321   3.928   3.303  0.0508 -0.1511  0.1240
  987PF6-    F315305   2.382   4.057   3.583 -0.5955  0.3010 -0.1631
  987PF6-    F415306   2.243   3.907   3.515 -0.3608  0.7861 -0.0172
  987PF6-    F515307   2.460   4.086   3.367 -0.0590 -0.0908  0.1482
  987PF6-    F615308   2.237   4.104   3.413 -0.0769  0.6725 -0.0614
  987PF6-    F715309   2.460   3.881   3.472 -0.4628 -0.0858  0.5242
  988PF6-    P115310   5.402   4.432   2.452  0.2362 -0.4182  0.2104
  988PF6-    F215311   5.348   4.486   2.591 -0.0558  0.2994 -0.2955
  988PF6-    F315312   5.450   4.378   2.310 -0.1783 -0.8251 -0.2034
  988PF6-    F415313   5.554   4.430   2.508  0.2220  0.0782  0.1045
  988PF6-    F515314   5.258   4.436   2.393  0.4605 -0.4220  0.4757
  988PF6-    F615315   5.420   4.586   2.405 -0.5367 -0.4077  0.1668
  988PF6-    F715316   5.391   4.283   2.508  0.1837 -0.1709  0.2273
  989PF6-    P115317   4.324   0.604   5.133 -0.3216  0.1990 -0.0698
  989PF6-    F215318   4.199   0.697   5.145  0.6426  0.1529  0.1913
  989PF6-    F315319   4.456   0.505   5.129  0.1458 -0.1917  0.4195
  989PF6-    F415320   4.250   0.511   5.027 -0.4904  0.1638  0.0063
  989PF6-    F515321   4.391   0.707   5.236 -0.1353 -0.1042  0.0815
  989PF6-    F615322   4.259   0.521   5.248 -0.2077 -0.3537 -0.2055
  989PF6-    F715323   4.386   0.689   5.016 -0.0919  0.1098  0.1259
  990PF6-    P115324   0.950   4.697   3.878 -0.1040 -0.0776  0.1436
  990PF6-    F215325   0.949   4.701   3.721 -0.0975  0.1727 -0.1476
  990PF6-    F315326   0.941   4.695   4.041 -0.7325  0.1026  0.4256
  990PF6-    F415327   0.790   4.686   3.871 -0.6446  0.4733 -0.4204
  990PF6-    F515328   1.109   4.707   3.882 -0.5305  0.2099 -0.0312
  990PF6-    F615329   0.930   4.860   3.881 -0.5532  0.1085 -0.6861
  990PF6-    F715330   0.958   4.540   3.881 -0.1317  0.1230 -0.2271
  991PF6-    P115331   1.371   0.675   1.442 -0.2862 -0.1188 -0.0532
  991PF6-    F215332   1.274   0.748   1.545  0.0903 -0.4118  0.1258
  991PF6-    F315333   1.464   0.597   1.340  0.2132 -0.0683 -0.4886
  991PF6-    F415334   1.484   0.679   1.552 -0.3415 -0.3596 -0.1738
  991PF6-    F515335   1.257   0.674   1.331  0.6996  0.1501 -0.2645
  991PF6-    F615336   1.420   0.817   1.387 -0.5355 -0.6790  0.1376
  991PF6-    F715337   1.322   0.532   1.505  0.1558 -0.6650  0.1545
  992PF6-    P115338   3.605   1.787   1.486  0.5978  0.1766 -0.6168
  992PF6-    F215339   3.682   1.923   1.544 -0.3361 -0.1193  0.1505
  992PF6-    F315340   3.527   1.655   1.436  0.3367 -0.5600 -0.0072
  992PF6-    F415341   3.486   1.871   1.424  0.1741 -0.0655  0.2714
  992PF6-    F515342   3.721   1.696   1.553  0.3727  0.1003  0.1629
  992PF6-    F615343   3.525   1.781   1.628  0.2775  0.5234  0.2870
  992PF6-    F715344   3.687   1.796   1.350 -0.4039 -0.0762  0.3402
  993PF6-    P115345   1.211   3.084   5.330  0.0391  0.0811 -0.4112
  993PF6-    F215346   1.193   3.230   5.391  0.8754  0.3246 -0.0077
  993PF6-    F315347   1.234   2.943   5.265  0.0076 -0.5521  0.5539
  993PF6-    F415348   1.368   3.111   5.335  0.3419  0.3856  0.2848
  993PF6-    F515349   1.055   3.065   5.321  0.4145 -0.0048  0.0372
  993PF6-    F615350   1.210   3.140   5.182 -0.1289 -0.4654 -0.4480
  993PF6-    F715351   1.208   3.024   5.476  0.0462  0.2294 -0.4238
  994PF6-    P115352   4.968   0.463   4.507 -0.2793 -0.3234 -0.2288
  994PF6-    F215353   4.977   0.463   4.343 -0.8549  0.0160 -0.3810
  994PF6-    F315354   4.949   0.462   4.671  0.1064 -0.2059 -0.0740
  994PF6-    F415355   5.044   0.604   4.516 -0.1862 -0.0797  0.2180
  994PF6-    F515356   4.890   0.326   4.498  0.0577 -0.1041  0.0430
  994PF6-    F615357   5.108   0.387   4.525  0.5950  0.0653 -0.2948
  994PF6-    F715358   4.830   0.548   4.482 -0.4511  0.0655  0.3129
  995PF6-    P115359   1.162   1.995   1.738 -0.4619  0.2242  0.0867
  995PF6-    F215360   1.250   1.995   1.609  0.0948  0.2258 -0.0631
  995PF6-    F315361   1.070   1.985   1.871  0.3424 -0.7055  0.1709
  995PF6-    F415362   1.218   2.134   1.790 -0.0361 -0.2512  0.0712
  995PF6-    F515363   1.101   1.855   1.688  0.4076 -0.1277  0.3019
  995PF6-    F615364   1.277   1.917   1.817 -0.0240  0.4325  0.2225
  995PF6-    F715365   1.041   2.068   1.660 -0.1767  0.2446 -0.3538
  996PF6-    P115366   3.322   3.600   3.820  0.4637 -0.0912  0.3241
  996PF6-    F215367   3.234   3.538   3.702  0.3550 -0.1397 -0.4313
  996PF6-    F315368   3.413   3.665   3.937 -0.0062 -0.1592 -0.5722
  996PF6-    F415369   3.362   3.718   3.717  0.3462  0.2485 -0.1767
  996PF6-    F515370   3.289   3.482   3.924  0.4157  0.2561  0.2835
  996PF6-    F615371   3.442   3.507   3.772  0.7202  0.1242 -0.2982
  996PF6-    F715372   3.198   3.688   3.870 -0.5208 -0.3221 -0.0900
  997PF6-    P115373   1.454   1.300   4.148  0.4415 -0.6744 -0.1378
  997PF6-    F215374   1.559   1.377   4.050  0.4926 -0.2419 -0.2581
  997PF6-    F315375   1.353   1.217   4.245  0.4789 -0.4875  0.2259
  997PF6-    F415376   1.530   1.160   4.118 -0.1413 -0.4343  0.1025
  997PF6-    F515377   1.372   1.434   4.181 -0.2499 -0.2943  0.1543
  997PF6-    F615378   1.347   1.274   4.028 -0.8467 -0.2064  0.5115
  997PF6-    F715379   1.550   1.330   4.273 -0.0465 -0.4728  0.0897
  998PF6-    P115380   5.088   3.413   2.580  0.2975  0.3651 -0.5522
  998PF6-    F215381   5.218   3.337   2.525  0.4075  0.1166  0.2048
  998PF6-    F315382   4.960   3.488   2.641  0.2366  0.2930 -0.0596
  998PF6-    F415383   5.000   3.346   2.467  0.4157 -0.2250  0.3000
  998PF6-    F515384   5.184   3.481   2.692  0.4458  0.2183  0.1942
  998PF6-    F615385   5.119   3.539   2.485 -0.0385  0.1923  0.1557
  998PF6-    F715386   5.052   3.292   2.679  0.0819 -0.0832 -0.0073
  999PF6-    P115387   1.526   4.902   3.468 -0.3133 -0.0018  0.1363
  999PF6-    F215388   1.486   4.935   3.614  0.2965  0.0883 -0.1241
  999PF6-    F315389   1.561   4.877   3.316 -0.9248  0.3121 -0.0235
  999PF6-    F415390   1.631   4.795   3.515  0.3020  0.0966 -0.2789
  999PF6-    F515391   1.415   5.011   3.424 -0.1672  0.2493 -0.1494
  999PF6-    F615392   1.637   5.012   3.480 -0.5978 -0.0412 -0.0984
  999PF6-    F715393   1.413   4.791   3.461  0.0466  0.0104 -0.1634
 1000PF6-    P115394   2.095   5.070   2.008  0.1796  0.1150 -0.0551
 1000PF6-    F215395   2.012   5.130   1.879  0.4792 -0.1665 -0.0703
 1000PF6-    F315396   2.172   5.015   2.126 -0.5232 -0.0799  0.0139
 1000PF6-    F415397   2.186   5.200   2.022 -0.4836  0.4423  0.3391
 1000PF6-    F515398   2.004   4.937   2.002 -0.6690  0.1077  0.0024
 1000PF6-    F615399   2.202   5.009   1.904 -0.0641  0.0987 -0.2593
 1000PF6-    F715400   1.988   5.136   2.105 -0.1898 -0.0772 -0.2416
 1001Na+     N115401   0.220   3.695   2.258 -0.1007 -0.1485 -0.1675
 1002Na+     N115402   2.347   0.611   4.609 -0.7477  0.2710  0.5378
 1003Na+     N115403   0.006   1.333   2.972 -0.1430 -0.1881 -0.0600
 1004Na+     N115404   1.148   3.965   2.741  0.3831  0.6266 -0.0624
 1005Na+     N115405   1.148   4.057   1.149 -0.5346 -0.0640  0.1570
 1006Na+     N115406   2.520   4.654   3.661 -0.0039  0.0043  0.6278
 1007Na+     N115407   1.639   1.018   1.425 -0.2976  0.1239 -0.3620
 1008Na+     N115408   2.894   1.628   1.104  0.3203  0.0186 -0.1971
 1009Na+     N115409   1.268   3.429   3.488 -0.1343  0.2107 -0.0636
 1010Na+     N115410   4.220   4.305   4.633 -0.2145  0.4966 -0.2873
 1011Na+     N115411   0.359   4.908   1.998 -0.2792  0.0163 -0.0857
 1012Na+     N115412   4.852   3.999   2.240 -0.3440  0.0695  0.4161
 1013Na+     N115413   4.579   0.416   4.426  0.3995 -0.2777 -0.0237
 1014Na+     N115414   0.575   1.873   1.984  0.5222  0.0320  0.3223
 1015Na+     N115415   3.180   3.450   2.634 -0.4254 -0.2880  0.8163
 1016Na+     N115416   0.629   3.029   2.673  0.1257  0.3955  0.8018
 1017Na+     N115417   1.702   2.630   1.859 -0.0112 -0.0075  0.5331
 1018Na+     N115418   2.965   5.487   1.401  0.1624 -0.1160  0.1850
 1019Na+     N115419   4.726   2.321   5.012  0.4454 -0.2020 -0.2963
 1020Na+     N115420   1.634   5.493   0.221 -0.3025  0.1289 -0.2827
 1021Na+     N115421   1.699   4.249   3.841 -0.0420 -0.2622 -0.1216
 1022Na+     N115422   0.093   1.104   1.083 -0.1139 -0.1425 -0.9932
 1023Na+     N115423   1.645   2.832   4.018  0.4578 -0.2012  0.1336
 1024Na+     N115424   2.714   0.646   0.822  0.1157 -0.0743 -0.6035
 1025Na+     N115425   1.348   5.151   3.658  0.2809 -0.1809  0.0693
 1026Na+     N115426   0.587   0.452   1.285 -0.0058 -0.4690 -0.0389
 1027Na+     N115427   5.445   2.800   2.808 -0.0116  0.0774  0.0085
 1028Na+     N115428   1.856   1.132   2.674  0.3081  0.2524  0.2532
 1029Na+     N115429   3.713   2.277   2.104 -0.1082 -0.1735  0.6311
 1030Na+     N115430   5.005   5.181   1.047 -0.3335 -0.4054 -0.1055
 1031Na+     N115431   4.825   4.000   0.295  0.1821 -0.4284  0.6624
 1032Na+     N115432   3.691   2.496   3.906 -0.6812  0.0693 -0.0220
 1033Na+     N115433   1.307   2.115   2.939 -0.2450 -0.1261 -0.5602
 1034Na+     N115434   2.177   5.141   1.215 -0.0250 -0.0644  0.2980
 1035Na+     N115435   3.941   5.343   1.890  0.0820 -0.5246  0.0227
 1036Na+     N115436   3.696   0.232   5.264  0.0708  0.3193 -0.5147
 1037Na+     N115437   1.454   3.079   0.072  0.2118 -0.4236  0.3054
 1038Na+     N115438   0.301   5.476   0.462 -0.1552  0.1925  0.5681
 1039Na+     N115439   4.046   5.429   3.734  0.0821 -0.3038  0.2568
 1040Na+     N115440   3.101   4.307   0.899 -0.2195  0.1709 -0.3121
 1041Na+     N115441   2.951   1.406   4.689  0.0851  0.2427 -0.2600
 1042Na+     N115442   2.624   5.354   0.193  0.3410 -0.1829 -0.1670
 1043Na+     N115443   3.503   1.303   2.056 -0.0733  0.3068  0.4038
 1044Na+     N115444   5.041   5.331   4.241  0.3553  0.0700 -0.0188
 1045Na+     N115445   0.246   2.562   4.884 -0.5321  0.1257 -0.4295
 1046Na+     N115446   4.067   3.634   2.351 -0.3053  0.2421  0.4828
 1047Na+     N115447   2.906   4.240   5.270  0.6652  0.5503  0.0351
 1048Na+     N115448   2.009   1.223   3.670  0.3265  0.3044  0.1380
 1049Na+     N115449   1.893   2.606   5.260 -0.5523 -0.1416 -0.2772
 1050Na+     N115450   5.269   2.396   1.074  0.4913  0.4608 -0.1786
 1051Na+     N115451   5.114   3.144   0.170 -0.1678 -0.1928 -0.2004
 1052Na+     N115452   5.268   3.970   1.012 -0.2421  0.1038  0.3446
 1053Na+     N115453   2.831   0.806   3.752  0.0405 -0.0671  0.1394
 1054Na+     N115454   0.713   3.280   4.861  0.0112  0.1619 -0.5861
 1055Na+     N115455   0.678   3.067   0.268  0.1220  0.1799  0.0188
 1056Na+     N115456   4.212   0.659   1.169 -0.0981  0.2494 -0.2137
 1057Na+     N115457   2.947   1.790   1.946 -0.3088  0.7835  0.6451
 1058Na+     N115458   4.259   4.639   0.371 -0.3441 -0.1034  0.1339
 1059Na+     N115459   1.044   1.096   0.292 -0.6450  0.0502 -0.2732
 1060Na+     N115460   3.109   3.704   4.441 -0.2486 -0.1232 -0.0369
 1061Na+     N115461   3.509   4.801   4.895  0.3748  0.1517  0.0995
 1062Na+     N115462   4.872   2.757   3.578 -0.3091  0.0483 -0.0529
 1063Na+     N115463   4.743   1.217   0.951  0.2980  0.2905 -0.0216
 1064Na+     N115464   3.462   0.806   0.325  0.0932 -0.3979  0.2485
 1065Na+     N115465   0.360   2.144   0.454 -0.4930 -0.3110  0.4426
 1066Na+     N115466   1.870   3.331   4.822  0.2633  0.0044 -0.4060
 1067Na+     N115467   2.515   4.753   1.958 -0.0996  0.2122  0.8646
 1068Na+     N115468   2.506   2.096   2.919 -0.0032 -0.1983  0.2247
 1069Na+     N115469   1.419   5.063   1.781 -0.0479 -0.2568  0.0765
 1070Na+     N115470   1.137   0.420   1.958 -0.2659 -0.4423 -0.2687
 1071Na+     N115471   0.476   2.450   1.271  0.3437 -0.2351 -0.0548
 1072Na+     N115472   2.373   3.988   1.887  0.2510 -0.5344 -0.2791
 1073Na+     N115473   4.356   3.339   0.828 -0.0077  0.1549  0.0451
 1074Na+     N115474   2.467   3.837   3.073  1.0663 -0.0411 -0.2345
 1075Na+     N115475   1.576   2.056   1.255 -0.0061 -0.0326 -0.0595
 1076Na+     N115476   5.167   4.806   4.728 -0.0354 -0.3108 -0.1920
 1077Na+     N115477   0.862   0.995   3.200 -0.0299 -0.3218  0.1277
 1078Na+     N115478   1.879   4.246   0.504  0.1258 -0.1049 -0.1023
 1079Na+     N115479   1.032   0.800   4.398 -0.2660  0.1294 -0.2811
 1080Na+     N115480   2.417   3.672   1.094 -0.1404 -0.4070  0.1652
 1081Na+     N115481   0.888   1.883   4.589 -0.2779 -0.0277  0.1297
 1082Na+     N115482   2.465   2.602   1.989  0.2655  0.0778  0.0117
 1083Na+     N115483   5.140   3.605   4.450 -0.1489 -0.0252  0.0321
 1084Na+     N115484   4.413   4.870   3.118  0.4743  0.3069 -0.1658
 1085Na+     N115485   3.369   0.010   2.491 -0.0140 -0.1468  0.0441
 1086Na+     N115486   3.488   3.428   0.320  0.0928 -0.2844 -0.6230
 1087Na+     N115487   0.944   4.174   4.542 -0.2564 -0.0211 -0.1003
 1088Na+     N115488   4.779   1.153   0.051 -0.0258  0.0687  0.1830
 1089Na+     N115489   0.177   3.729   3.252 -0.0337 -0.3576 -0.0310
 1090Na+     N115490   4.232   2.225   1.349 -0.1591 -0.0232  0.0353
 1091Na+     N115491   5.197   5.127   2.935  0.1827 -0.0997  0.2767
 1092Na+     N115492   0.623   5.141   1.176 -0.3972 -0.0716 -0.0096
 1093Na+     N115493   1.826   4.442   4.836  0.0043  0.1223  0.4687
 1094Na+     N115494   3.126   4.545   3.901  0.4541  0.4138 -0.4439
 1095Na+     N115495   4.193   1.384   5.016  0.6935 -0.4012 -0.2357
 1096Na+     N115496   4.410   1.902   2.335  0.1310  0.1004 -0.3673
 1097Na+     N115497   4.775   2.278   0.343 -0.3923 -0.0603  0.1803
 1098Na+     N115498   2.753   2.469   1.015 -0.4263 -0.2241 -0.3107
 1099Na+     N115499   5.188   0.344   3.486 -0.0761  0.3158 -0.2818
 1100Na+     N115500   3.494   1.277   1.273  0.2346 -0.4440 -0.5011
   5.50536   5.50536   5.50536
