DG-THF-PF6-Na      Amber RESP
15500
    1DG      C1    1   4.760   0.076   2.431  0.7010  0.3608 -0.1203
    1DG      C2    2   4.285   0.383   2.723  0.3041  0.5478  1.2730
    1DG      H3    3   4.817  -0.016   2.419 -2.5657 -2.5449  3.6649
    1DG      H4    4   4.828   0.146   2.480  1.6086 -0.9160  0.5055
    1DG      H5    5   4.717   0.107   2.336 -1.1387 -0.5430  0.3688
    1DG      H6    6   4.183   0.405   2.752 -0.7700 -0.9884 -1.0214
    1DG      H7    7   4.350   0.331   2.794  1.4763 -2.1031 -1.5003
    1DG      H8    8   4.333   0.479   2.703  0.4185  1.1530  4.0308
    1DG      O9    9   4.649   0.065   2.514 -0.4177  0.5116 -0.1905
    1DG     O10   10   4.278   0.307   2.604 -0.0172  0.3646  0.8185
    1DG     C11   11   4.594  -0.065   2.503  0.1144 -0.1907 -0.7468
    1DG     C12   12   4.197   0.184   2.607  0.6658  0.0207  0.0768
    1DG     H13   13   4.659  -0.149   2.526  0.4727 -0.5283 -2.7928
    1DG     H14   14   4.555  -0.076   2.402 -0.8663  0.1843 -0.4224
    1DG     H15   15   4.156   0.164   2.507  2.8737 -1.5454 -0.5863
    1DG     H16   16   4.105   0.199   2.663  1.0355 -1.7786  1.2501
    1DG     C17   17   4.472  -0.062   2.599 -0.1960  0.4304 -0.2165
    1DG     C18   18   4.281   0.064   2.652  0.7723 -0.4341 -0.3358
    1DG     O19   19   4.395   0.052   2.573 -0.3531 -0.0778  0.4992
    1DG     H20   20   4.511  -0.066   2.700  0.9609  2.8720 -0.5039
    1DG     H21   21   4.415  -0.154   2.585 -2.3235  1.8455 -1.4105
    1DG     H22   22   4.295   0.068   2.760  2.8690  0.3839 -0.5940
    1DG     H23   23   4.215  -0.023   2.639  1.4326 -1.7498  3.5081
    2DG      C1   24   2.558   3.608   1.835  0.6312  0.2195  0.5113
    2DG      C2   25   2.374   4.231   1.454  0.1215 -0.5830 -0.0846
    2DG      H3   26   2.451   3.590   1.846  0.7404  0.5788  2.4247
    2DG      H4   27   2.597   3.577   1.931  0.7564 -2.3363 -0.3037
    2DG      H5   28   2.590   3.544   1.753 -1.2472 -1.0185  0.6936
    2DG      H6   29   2.430   4.294   1.385 -0.6450  2.5620  1.9409
    2DG      H7   30   2.367   4.133   1.408 -0.5868 -0.9516  0.7798
    2DG      H8   31   2.269   4.260   1.460  0.2205 -0.3588  0.6575
    2DG      O9   32   2.594   3.743   1.796 -0.6959 -0.3558  0.1137
    2DG     O10   33   2.449   4.240   1.575 -0.6736 -0.3430 -0.1132
    2DG     C11   34   2.536   3.837   1.889  0.6214  0.0669  0.7174
    2DG     C12   35   2.370   4.212   1.692  0.0689  0.2032 -0.3105
    2DG     H13   36   2.566   3.811   1.990 -3.0115 -0.8536  1.6699
    2DG     H14   37   2.428   3.826   1.895  0.7401 -2.4173 -0.4448
    2DG     H15   38   2.300   4.133   1.665 -0.0113  0.6295 -1.4283
    2DG     H16   39   2.304   4.294   1.721 -2.1890 -1.4949 -0.3698
    2DG     C17   40   2.589   3.969   1.856  0.0393 -0.2912  0.4465
    2DG     C18   41   2.461   4.155   1.799 -0.6671 -0.3859  0.0327
    2DG     O19   42   2.510   4.034   1.757 -0.2436  0.3529 -0.3268
    2DG     H20   43   2.688   3.975   1.812 -0.3122  1.8043 -0.1407
    2DG     H21   44   2.602   4.027   1.947 -1.2366  0.1388  0.3803
    2DG     H22   45   2.542   4.226   1.813 -1.1583 -0.1090  1.7826
    2DG     H23   46   2.408   4.145   1.894  1.0709 -0.6805  1.0023
    3DG      C1   47   4.753   2.973   0.597  0.1263 -0.9640  0.0148
    3DG      C2   48   4.775   3.664   1.013  0.2834 -0.1402 -0.0550
    3DG      H3   49   4.659   2.976   0.653 -0.3732 -0.7547 -0.8203
    3DG      H4   50   4.794   2.874   0.615  0.6458 -0.3071  2.9928
    3DG      H5   51   4.725   2.980   0.492  0.5491 -1.7247 -0.1506
    3DG      H6   52   4.757   3.678   0.907  2.4807 -3.8237 -1.0906
    3DG      H7   53   4.678   3.637   1.054  1.0261  0.6363  2.3796
    3DG      H8   54   4.806   3.756   1.063 -0.4233  0.7066 -1.1524
    3DG      O9   55   4.829   3.089   0.640  0.1080 -0.3980  0.2886
    3DG     O10   56   4.881   3.568   1.037  0.1022 -0.1930 -0.4371
    3DG     C11   57   4.799   3.212   0.582 -0.6569 -0.7920 -0.0416
    3DG     C12   58   4.874   3.443   0.971  0.2297  0.2877  0.2624
    3DG     H13   59   4.694   3.239   0.586 -0.5106 -0.0715 -0.9141
    3DG     H14   60   4.820   3.196   0.477  1.7590 -1.0473  0.4171
    3DG     H15   61   4.778   3.393   0.982 -0.6803  1.4760 -1.7739
    3DG     H16   62   4.948   3.375   1.014  0.3301  0.3493  0.1878
    3DG     C17   63   4.886   3.314   0.639 -0.9693 -0.4666  0.6284
    3DG     C18   64   4.897   3.463   0.823 -0.1298  0.4421 -0.3375
    3DG     O19   65   4.860   3.335   0.769  0.2173 -0.0403 -0.2154
    3DG     H20   66   4.877   3.410   0.587  1.0983  0.6606  2.1877
    3DG     H21   67   4.989   3.281   0.624 -1.5062 -1.5059 -0.9786
    3DG     H22   68   4.824   3.527   0.774 -0.0526  2.8290  2.3946
    3DG     H23   69   5.001   3.483   0.795 -0.0192 -2.2050 -2.2988
    4DG      C1   70   1.920   1.115   5.164  0.0530  0.0209 -0.1319
    4DG      C2   71   1.934   0.526   4.833 -0.3072 -0.0898 -0.6185
    4DG      H3   72   1.869   1.123   5.068 -1.4001 -0.3006  0.5819
    4DG      H4   73   2.028   1.121   5.149  0.1770  0.6030  0.8575
    4DG      H5   74   1.900   1.200   5.229 -0.7359  1.2246 -1.8564
    4DG      H6   75   1.958   0.429   4.876  1.9384  0.7350  0.1370
    4DG      H7   76   1.866   0.508   4.750  0.6810 -0.1141 -1.4452
    4DG      H8   77   2.026   0.574   4.800 -1.4115  1.4213 -1.6771
    4DG      O9   78   1.899   0.987   5.223  0.6539  0.1144  0.8728
    4DG     O10   79   1.876   0.622   4.928  0.3404  0.4131  0.4098
    4DG     C11   80   1.767   0.947   5.250  0.7350  0.1227 -0.0219
    4DG     C12   81   1.758   0.573   4.986  0.0738 -0.6689  0.0836
    4DG     H13   82   1.710   0.966   5.158  0.7942  1.7043  0.2410
    4DG     H14   83   1.731   1.015   5.327 -1.1664  1.3512 -1.8678
    4DG     H15   84   1.769   0.478   5.038 -0.4361  0.5589  2.6153
    4DG     H16   85   1.682   0.564   4.908 -0.8506 -0.3086  0.9113
    4DG     C17   86   1.763   0.803   5.295  0.1213 -0.1605 -0.0080
    4DG     C18   87   1.708   0.676   5.095  0.2333  0.2119 -0.6739
    4DG     O19   88   1.805   0.718   5.189 -0.0027 -0.1010 -0.6602
    4DG     H20   89   1.666   0.768   5.331 -0.4714  0.3781 -1.0517
    4DG     H21   90   1.828   0.778   5.379  0.8293  1.0768 -0.1698
    4DG     H22   91   1.678   0.767   5.043 -1.4185  0.7898  1.1706
    4DG     H23   92   1.627   0.641   5.158 -0.5367 -0.7351 -2.1522
    5DG      C1   93   3.455   1.082   0.100 -0.2124 -0.0662  0.6603
    5DG      C2   94   3.945   0.854   0.471  0.0095  0.1734  0.0353
    5DG      H3   95   3.529   1.115   0.027  1.3753 -2.3402  1.1436
    5DG      H4   96   3.418   1.167   0.158 -0.5789  0.1420  0.1265
    5DG      H5   97   3.372   1.047   0.039 -0.0687  0.0764  0.3834
    5DG      H6   98   3.992   0.844   0.374 -1.6667  0.4766 -0.8374
    5DG      H7   99   3.985   0.952   0.497  0.3905  0.3270 -1.1047
    5DG      H8  100   3.977   0.778   0.542 -2.8030  0.7714  2.1507
    5DG      O9  101   3.501   0.983   0.192  0.1781 -0.4853 -0.1661
    5DG     O10  102   3.802   0.827   0.453 -0.9364 -0.2267 -0.3856
    5DG     C11  103   3.388   0.929   0.256 -0.1834 -0.2465 -0.5019
    5DG     C12  104   3.732   0.837   0.571 -0.0333  0.1125 -0.2907
    5DG     H13  105   3.313   0.892   0.186  0.9294 -1.6743 -0.9842
    5DG     H14  106   3.348   1.009   0.319 -0.4440 -1.0162  0.3363
    5DG     H15  107   3.744   0.941   0.601 -2.0919  0.7901 -1.6059
    5DG     H16  108   3.763   0.767   0.648  0.0121  1.3995  0.9033
    5DG     C17  109   3.434   0.817   0.354 -0.4326  0.2833  0.3291
    5DG     C18  110   3.584   0.807   0.529  0.0157 -0.0744  0.7095
    5DG     O19  111   3.543   0.881   0.412  0.1700 -0.5555 -0.3686
    5DG     H20  112   3.465   0.727   0.301  0.5111 -0.2268  1.6882
    5DG     H21  113   3.354   0.790   0.423 -1.0515  1.0204 -0.0833
    5DG     H22  114   3.577   0.700   0.507 -0.2714  0.0426  0.2113
    5DG     H23  115   3.522   0.831   0.616 -2.5522 -1.0414 -0.7272
    6DG      C1  116   5.100   2.446   4.709  0.4133  0.2160  0.0212
    6DG      C2  117   5.571   2.711   3.989  0.8101 -0.0016  0.3162
    6DG      H3  118   5.002   2.472   4.750 -0.4650  0.4288 -2.0889
    6DG      H4  119   5.171   2.449   4.791 -0.4797  1.5261  0.7874
    6DG      H5  120   5.096   2.342   4.678  3.6321  0.2102 -0.6441
    6DG      H6  121   5.656   2.641   3.987  0.1973 -0.7531 -0.3497
    6DG      H7  122   5.508   2.676   3.907  0.5032 -0.2647  0.6636
    6DG      H8  123   5.611   2.809   3.963  0.8121 -0.3697 -1.1548
    6DG      O9  124   5.143   2.535   4.610 -0.4408  0.2184  0.3981
    6DG     O10  125   5.525   2.721   4.130  0.1486  0.0879  0.6218
    6DG     C11  126   5.072   2.520   4.482 -0.1238 -0.1182 -0.6236
    6DG     C12  127   5.455   2.609   4.182  0.0838  0.0599 -0.0762
    6DG     H13  128   4.966   2.545   4.487 -0.1806 -0.5523  0.8304
    6DG     H14  129   5.083   2.416   4.453  2.0561 -0.9575  2.6747
    6DG     H15  130   5.535   2.567   4.243  0.6506  1.5655  0.2538
    6DG     H16  131   5.424   2.540   4.103  1.7794  0.0061 -0.7414
    6DG     C17  132   5.131   2.614   4.377  0.3648  0.0905  0.4419
    6DG     C18  133   5.337   2.674   4.262 -0.5134  0.1015  0.4652
    6DG     O19  134   5.270   2.575   4.347 -0.0449 -0.5938  0.0094
    6DG     H20  135   5.138   2.715   4.419  0.3261 -1.1265  3.6000
    6DG     H21  136   5.080   2.613   4.281  1.4132  0.3566 -0.1413
    6DG     H22  137   5.380   2.757   4.319  0.2762  1.1528 -1.5346
    6DG     H23  138   5.276   2.724   4.186  1.6864  1.6747 -0.3668
    7DG      C1  139   2.889   0.527   3.221  0.2969 -0.4510 -0.1542
    7DG      C2  140   3.343   0.329   3.767  0.3238  0.2493 -0.5104
    7DG      H3  141   2.846   0.469   3.140  0.6855  1.9482 -2.2024
    7DG      H4  142   2.861   0.632   3.214 -0.4499 -0.6801 -0.7289
    7DG      H5  143   2.858   0.475   3.312  2.5223  0.0698  0.9768
    7DG      H6  144   3.379   0.431   3.770  2.6113 -0.5108 -0.2642
    7DG      H7  145   3.234   0.327   3.760  0.4194 -0.9514 -2.4102
    7DG      H8  146   3.365   0.275   3.859 -0.6841  0.1580 -0.3074
    7DG      O9  147   3.029   0.512   3.216 -0.0789  0.1731 -0.3012
    7DG     O10  148   3.399   0.260   3.661  0.0029  0.2043 -0.2106
    7DG     C11  149   3.098   0.574   3.323 -0.3547  0.2018 -0.0178
    7DG     C12  150   3.334   0.283   3.543  0.7453  0.5211 -0.5099
    7DG     H13  151   3.058   0.540   3.419 -1.7595  0.8615 -0.3350
    7DG     H14  152   3.074   0.681   3.330 -2.9587 -0.3578  0.7350
    7DG     H15  153   3.233   0.244   3.547  0.7120  0.0442 -3.4766
    7DG     H16  154   3.388   0.217   3.475 -0.4682  0.3957 -1.3839
    7DG     C17  155   3.252   0.555   3.298 -0.1531 -0.8999 -0.1195
    7DG     C18  156   3.345   0.423   3.476  1.0018 -0.3569  0.0630
    7DG     O19  157   3.285   0.423   3.351  0.0918 -0.1277 -0.5208
    7DG     H20  158   3.326   0.627   3.333  0.9262 -2.0225 -0.0179
    7DG     H21  159   3.276   0.549   3.192  0.6233  0.0411 -0.0048
    7DG     H22  160   3.294   0.498   3.537  0.5183 -0.1344 -0.6013
    7DG     H23  161   3.449   0.453   3.466  0.9140  0.3351  1.0913
    8DG      C1  162   4.152   1.610   4.771  0.4960  0.5032 -0.5228
    8DG      C2  163   4.766   1.343   4.667 -0.3865 -0.3964 -0.0065
    8DG      H3  164   4.057   1.609   4.718 -1.0471 -0.8106  2.0925
    8DG      H4  165   4.202   1.705   4.748 -2.1511  1.6380 -1.9848
    8DG      H5  166   4.146   1.621   4.879  0.3130 -0.2017 -0.4579
    8DG      H6  167   4.826   1.414   4.723  2.0985 -3.1650  1.1064
    8DG      H7  168   4.829   1.256   4.648 -1.9365 -1.6761  0.4407
    8DG      H8  169   4.740   1.390   4.572 -0.0824  1.4221  0.7612
    8DG      O9  170   4.243   1.508   4.745 -0.2334  0.2686  0.4026
    8DG     O10  171   4.648   1.313   4.738  0.7372  0.6744 -0.3541
    8DG     C11  172   4.185   1.378   4.789 -0.1509 -0.2351  0.2285
    8DG     C12  173   4.601   1.182   4.707  0.5155  0.1137  0.6467
    8DG     H13  174   4.085   1.358   4.751  0.2884 -1.6443 -0.2323
    8DG     H14  175   4.179   1.372   4.898 -1.7320 -1.7975  0.0924
    8DG     H15  176   4.667   1.097   4.721 -1.3869 -1.4831  0.3586
    8DG     H16  177   4.557   1.184   4.607  0.6400  0.9610  0.5976
    8DG     C17  178   4.276   1.259   4.739 -0.2615  0.6168 -0.3156
    8DG     C18  179   4.475   1.148   4.792 -0.7178  0.0718 -0.1194
    8DG     O19  180   4.395   1.271   4.809 -0.0972 -0.0365  0.0768
    8DG     H20  181   4.289   1.263   4.631 -1.4488  1.3112 -0.4486
    8DG     H21  182   4.224   1.167   4.767  0.1951  0.4539 -0.0032
    8DG     H22  183   4.423   1.056   4.766  0.6522 -0.4223 -1.1941
    8DG     H23  184   4.523   1.123   4.887  1.6027  1.7692 -0.7610
    9DG      C1  185   4.345   4.160   3.007 -0.0345 -0.4725  0.5658
    9DG      C2  186   4.609   4.759   2.769 -0.5030 -0.1115 -0.5444
    9DG      H3  187   4.355   4.055   3.033 -1.3923 -1.3211 -1.9319
    9DG      H4  188   4.255   4.180   2.947 -1.6125 -2.6619  2.0512
    9DG      H5  189   4.327   4.221   3.095  0.8054 -0.3313  0.6425
    9DG      H6  190   4.541   4.797   2.693  1.2029 -0.7899 -2.4766
    9DG      H7  191   4.583   4.810   2.862 -1.2090  0.9250 -1.2851
    9DG      H8  192   4.711   4.792   2.752 -0.2433 -0.0549  0.9468
    9DG      O9  193   4.461   4.203   2.939  0.1854  0.3558  0.0410
    9DG     O10  194   4.602   4.617   2.778  0.4639  0.6263 -0.2668
    9DG     C11  195   4.480   4.135   2.815  0.4570 -0.1567 -0.6247
    9DG     C12  196   4.637   4.561   2.658 -0.3759  0.5332  0.3951
    9DG     H13  197   4.394   4.144   2.749 -0.1918 -1.4490  0.0203
    9DG     H14  198   4.495   4.027   2.826  1.0915 -0.3360 -2.8143
    9DG     H15  199   4.717   4.613   2.606  0.3646 -2.0194 -1.2131
    9DG     H16  200   4.555   4.562   2.586 -1.2553 -1.3771  1.2869
    9DG     C17  201   4.594   4.204   2.738 -0.3706  0.4720  0.2478
    9DG     C18  202   4.682   4.416   2.686  0.1245  0.7010  0.0238
    9DG     O19  203   4.565   4.338   2.727 -0.5209 -0.0071 -0.2354
    9DG     H20  204   4.616   4.162   2.640  0.8653 -0.3337  0.8480
    9DG     H21  205   4.685   4.187   2.795 -2.3808 -0.1206  3.5536
    9DG     H22  206   4.721   4.386   2.589 -0.9578  3.5353 -1.3993
    9DG     H23  207   4.751   4.416   2.770 -0.0485  0.3178  0.1664
   10DG      C1  208   3.342   2.594   1.809  0.1021 -0.1094 -0.2723
   10DG      C2  209   3.921   2.918   2.027 -0.4097 -0.3646  0.5878
   10DG      H3  210   3.324   2.490   1.838  2.0175 -0.9335 -1.8233
   10DG      H4  211   3.276   2.617   1.726 -0.9675  1.2601  0.9092
   10DG      H5  212   3.296   2.670   1.872 -1.8828 -1.5716  0.1643
   10DG      H6  213   3.901   3.019   1.993 -2.7652 -1.1973 -0.7035
   10DG      H7  214   3.875   2.909   2.125  1.1024 -0.2265  1.3286
   10DG      H8  215   4.027   2.895   2.036 -0.7376 -1.5921  1.5766
   10DG      O9  216   3.482   2.623   1.785  0.9013  0.2419 -0.3951
   10DG     O10  217   3.867   2.823   1.939  0.5615  0.5076  0.8573
   10DG     C11  218   3.554   2.516   1.721  0.1309 -0.3952 -0.2235
   10DG     C12  219   3.914   2.828   1.805 -0.2072  0.3185 -0.2130
   10DG     H13  220   3.503   2.468   1.638 -2.7367 -0.1530  1.2796
   10DG     H14  221   3.570   2.432   1.789  0.2819  0.7146  1.1517
   10DG     H15  222   4.023   2.820   1.799  0.0317  3.4156 -1.5634
   10DG     H16  223   3.884   2.913   1.745 -1.6158 -0.5618 -0.8045
   10DG     C17  224   3.685   2.569   1.669 -0.2453  0.2428 -0.2541
   10DG     C18  225   3.874   2.697   1.730  0.1634 -0.2883 -0.1683
   10DG     O19  226   3.743   2.656   1.761  0.5065  0.2041 -0.2333
   10DG     H20  227   3.657   2.619   1.576  0.9850  0.2001 -0.6710
   10DG     H21  228   3.746   2.480   1.655  0.8396  0.8383  0.5502
   10DG     H22  229   3.876   2.709   1.622 -1.4922 -0.4893 -0.2349
   10DG     H23  230   3.941   2.610   1.730 -1.8375 -1.9484 -1.6828
   11DG      C1  231   4.804   3.330   4.952  0.1588  0.0542 -0.2306
   11DG      C2  232   5.086   3.675   4.444 -0.0784  0.1766 -0.1560
   11DG      H3  233   4.821   3.228   4.988 -1.3413 -0.7700 -1.7352
   11DG      H4  234   4.702   3.363   4.970 -0.6332 -1.1793 -2.0878
   11DG      H5  235   4.869   3.395   5.011 -1.1254 -0.6012  2.0484
   11DG      H6  236   5.183   3.637   4.474 -0.4637 -1.3311 -0.7147
   11DG      H7  237   5.097   3.704   4.339 -0.0181 -0.5706 -0.3652
   11DG      H8  238   5.059   3.752   4.517 -1.0412 -0.6348  0.3767
   11DG      O9  239   4.829   3.348   4.814  0.0359 -0.1202  0.0833
   11DG     O10  240   4.998   3.564   4.461  0.0330 -0.1727  0.2018
   11DG     C11  241   4.729   3.289   4.731  0.3883  0.4806 -0.2147
   11DG     C12  242   4.887   3.564   4.374 -0.0972 -0.0117 -0.1748
   11DG     H13  243   4.629   3.329   4.749 -0.9469 -2.4209 -0.7176
   11DG     H14  244   4.716   3.186   4.762 -0.3948  1.2047  2.0959
   11DG     H15  245   4.906   3.581   4.269  1.8145 -1.8370 -0.1931
   11DG     H16  246   4.833   3.652   4.410 -0.9202  0.4110 -2.3039
   11DG     C17  247   4.771   3.289   4.588 -0.5293  0.0959 -0.0309
   11DG     C18  248   4.794   3.444   4.408  0.1412  0.3097  0.1281
   11DG     O19  249   4.791   3.426   4.550 -0.1976 -0.1051 -0.9993
   11DG     H20  250   4.695   3.234   4.532  1.1499 -0.2969 -2.0452
   11DG     H21  251   4.861   3.232   4.567 -1.4315 -0.6313 -2.2168
   11DG     H22  252   4.695   3.466   4.367  1.0827 -0.5343 -2.8369
   11DG     H23  253   4.831   3.354   4.359  2.2020  0.5813  1.1068
   12DG      C1  254   3.114   2.385   3.916  0.6980 -0.3676 -0.7982
   12DG      C2  255   3.307   2.251   3.334  0.3706 -0.4718 -0.5237
   12DG      H3  256   3.208   2.440   3.925  0.5468 -0.2967  0.5311
   12DG      H4  257   3.072   2.363   4.014 -0.8984 -1.3137 -1.6507
   12DG      H5  258   3.036   2.447   3.872 -0.5253  0.9806  2.8513
   12DG      H6  259   3.218   2.307   3.305 -0.5397 -1.2239  0.7117
   12DG      H7  260   3.386   2.324   3.354  0.3665 -0.1195 -1.6834
   12DG      H8  261   3.341   2.202   3.243  2.9099 -2.1039  1.1793
   12DG      O9  262   3.155   2.270   3.845  0.4594  1.0292 -0.3512
   12DG     O10  263   3.285   2.167   3.441 -0.1218  0.5010 -0.1896
   12DG     C11  264   3.068   2.161   3.866  0.5185  0.1593 -0.2280
   12DG     C12  265   3.207   2.051   3.419 -0.7282  0.3020  0.0936
   12DG     H13  266   2.968   2.191   3.832  0.1118  0.7181  1.3461
   12DG     H14  267   3.056   2.135   3.971 -0.7612 -2.2134 -0.9047
   12DG     H15  268   3.288   1.999   3.367 -0.6901  0.3854  0.0687
   12DG     H16  269   3.119   2.073   3.358 -0.6537  1.0630  0.2429
   12DG     C17  270   3.115   2.030   3.781 -0.1569 -0.2522 -0.6074
   12DG     C18  271   3.180   1.988   3.551 -0.6768  0.3710  0.2570
   12DG     O19  272   3.132   2.082   3.647  0.0699  0.0695 -0.1971
   12DG     H20  273   3.031   1.962   3.778 -0.6541  0.0764  2.5075
   12DG     H21  274   3.206   1.976   3.809  0.3015  0.2406 -1.1023
   12DG     H22  275   3.121   1.897   3.537 -0.1229  0.0747 -0.2014
   12DG     H23  276   3.275   1.948   3.586 -0.6463  0.4754  0.2945
   13DG      C1  277   2.066   0.829   1.763  0.4893  0.1874 -0.2902
   13DG      C2  278   2.255   0.201   2.062  0.7061  0.0456 -0.0528
   13DG      H3  279   2.058   0.862   1.866  0.2728 -1.2150  0.1679
   13DG      H4  280   1.963   0.841   1.729 -0.6891 -2.3272  1.9924
   13DG      H5  281   2.133   0.897   1.711  0.9622  0.8411  1.1202
   13DG      H6  282   2.333   0.126   2.051 -0.1696 -0.6698 -1.7087
   13DG      H7  283   2.280   0.259   2.150 -0.3898  0.0824  0.2565
   13DG      H8  284   2.157   0.154   2.077 -0.4324  1.5896 -2.1321
   13DG      O9  285   2.106   0.700   1.762  0.1310 -0.5068  0.1186
   13DG     O10  286   2.242   0.292   1.950  0.7640 -0.7575  0.3795
   13DG     C11  287   2.098   0.636   1.633 -0.0009 -0.4684  0.0979
   13DG     C12  288   2.229   0.219   1.828 -0.2223 -0.6865 -0.4907
   13DG     H13  289   2.099   0.702   1.547  0.2895  1.3941  1.4651
   13DG     H14  290   2.000   0.591   1.649  1.3303 -3.3164  0.8767
   13DG     H15  291   2.128   0.179   1.829 -0.7864  0.6633 -0.9320
   13DG     H16  292   2.305   0.141   1.822  0.5502  0.1676 -2.6818
   13DG     C17  293   2.193   0.521   1.608  0.2457 -0.1948  0.5108
   13DG     C18  294   2.262   0.312   1.705 -0.3446  0.1134 -0.8388
   13DG     O19  295   2.177   0.423   1.715 -0.4567 -0.2917 -0.0627
   13DG     H20  296   2.293   0.562   1.620  0.9273 -2.2387  2.4928
   13DG     H21  297   2.174   0.488   1.505 -0.6436  2.1201 -0.1233
   13DG     H22  298   2.367   0.341   1.702  0.2239 -1.2485  2.2458
   13DG     H23  299   2.234   0.257   1.615 -1.5328 -0.2101 -0.2857
   14DG      C1  300   4.608   1.914   1.234 -0.4587  0.5076  0.4320
   14DG      C2  301   5.136   1.594   0.969 -0.0244 -0.1366 -0.1324
   14DG      H3  302   4.670   1.938   1.321 -0.3731  0.0660  0.4922
   14DG      H4  303   4.586   1.808   1.240 -0.7216  0.5366  0.0084
   14DG      H5  304   4.529   1.986   1.255 -0.5841 -0.1238  2.3187
   14DG      H6  305   5.214   1.635   0.905  1.2681 -2.0664  0.0943
   14DG      H7  306   5.173   1.610   1.070 -0.8926 -1.0762  0.3526
   14DG      H8  307   5.128   1.488   0.943 -0.0314  0.3581 -2.3485
   14DG      O9  308   4.678   1.944   1.115 -0.3790 -0.1406  0.1448
   14DG     O10  309   5.017   1.661   0.958  0.2350 -0.0925  0.0978
   14DG     C11  310   4.614   1.894   0.998 -0.5910 -0.6370  0.1989
   14DG     C12  311   4.984   1.689   0.831  0.2505 -0.4385 -0.2283
   14DG     H13  312   4.514   1.937   0.987 -0.8873 -1.8407 -2.6275
   14DG     H14  313   4.597   1.786   1.006  0.9795 -1.0448 -1.4245
   14DG     H15  314   4.986   1.594   0.776 -1.8002 -2.1370  2.3487
   14DG     H16  315   5.052   1.759   0.784  1.4281 -0.7066  0.9949
   14DG     C17  316   4.700   1.932   0.872  0.0728  0.4714  0.5511
   14DG     C18  317   4.844   1.751   0.822  0.0466  0.2487  0.0614
   14DG     O19  318   4.827   1.877   0.892  0.1590 -0.8063 -0.2329
   14DG     H20  319   4.705   2.040   0.865  0.5600  0.4556  0.6074
   14DG     H21  320   4.654   1.892   0.782 -0.6343  0.4496  0.9118
   14DG     H22  321   4.829   1.762   0.714  0.1284 -0.1350  0.0066
   14DG     H23  322   4.763   1.681   0.844 -0.2079  1.1860  2.3396
   15DG      C1  323   4.599   2.040   0.382 -0.1447 -0.3044 -0.9420
   15DG      C2  324   4.147   2.385  -0.192  0.1584  0.0033  0.5282
   15DG      H3  325   4.543   1.950   0.358 -0.2489 -0.0981 -1.5179
   15DG      H4  326   4.599   2.049   0.490  0.6861  0.1857 -0.9729
   15DG      H5  327   4.705   2.023   0.366  0.3358  0.6577  0.9311
   15DG      H6  328   4.085   2.299  -0.168 -0.9347  0.1361 -1.6008
   15DG      H7  329   4.074   2.464  -0.206  1.4298  1.8595  3.4489
   15DG      H8  330   4.202   2.367  -0.284 -0.5476  2.8458 -0.5504
   15DG      O9  331   4.548   2.162   0.319  0.5011  0.1397 -0.3319
   15DG     O10  332   4.227   2.401  -0.077  0.1196  0.2813 -0.0748
   15DG     C11  333   4.420   2.198   0.367  0.0640 -1.0011 -0.1899
   15DG     C12  334   4.312   2.287  -0.063  0.3856 -0.1428 -0.0418
   15DG     H13  335   4.432   2.213   0.474 -0.3240  0.3506 -0.3185
   15DG     H14  336   4.345   2.119   0.363 -1.0991  0.0721  0.0961
   15DG     H15  337   4.387   2.284  -0.143  1.4218 -1.2351  0.9361
   15DG     H16  338   4.246   2.200  -0.066 -0.4204  0.3711  1.7559
   15DG     C17  339   4.373   2.333   0.300 -0.1082  0.0576 -0.6264
   15DG     C18  340   4.396   2.299   0.061  1.0848 -0.4235  0.7327
   15DG     O19  341   4.315   2.298   0.177 -0.6435  0.2110 -0.2213
   15DG     H20  342   4.459   2.398   0.285  0.3455 -0.8069 -2.0288
   15DG     H21  343   4.297   2.388   0.356 -0.2289  0.3089 -1.0293
   15DG     H22  344   4.484   2.235   0.064  0.6325 -1.0250  1.4063
   15DG     H23  345   4.436   2.400   0.045  1.0622 -0.6305 -0.7196
   16DG      C1  346   4.295   0.329   2.189 -0.4516  0.0213  0.0348
   16DG      C2  347   4.683   0.298   2.763  0.2561 -0.8414 -0.7994
   16DG      H3  348   4.239   0.258   2.249 -0.0415  0.8920  1.4976
   16DG      H4  349   4.303   0.288   2.088 -2.5987 -0.4689  0.0068
   16DG      H5  350   4.231   0.417   2.192 -0.9390 -0.3372  0.1865
   16DG      H6  351   4.695   0.190   2.756 -1.3510 -1.1068  0.0963
   16DG      H7  352   4.757   0.326   2.838 -0.0658 -1.4479 -0.2465
   16DG      H8  353   4.582   0.313   2.801  0.4375 -1.5791 -0.0113
   16DG      O9  354   4.419   0.344   2.255 -0.6899  0.0062  0.2542
   16DG     O10  355   4.709   0.356   2.642  0.0000 -0.0408 -0.4653
   16DG     C11  356   4.470   0.471   2.232 -0.3865 -0.4343 -0.3153
   16DG     C12  357   4.726   0.495   2.636  0.5388  0.1496  0.8579
   16DG     H13  358   4.394   0.534   2.278 -0.9445 -1.3790  0.0841
   16DG     H14  359   4.465   0.499   2.126  0.4453  0.9680 -0.0174
   16DG     H15  360   4.821   0.515   2.686  0.6841  1.4147  0.1130
   16DG     H16  361   4.638   0.537   2.685 -0.4972 -0.2802 -0.5810
   16DG     C17  362   4.607   0.514   2.289  0.3599 -0.4295  0.1773
   16DG     C18  363   4.726   0.546   2.491 -0.0397 -0.0351  0.1184
   16DG     O19  364   4.627   0.476   2.423  0.6552 -0.0819 -0.1928
   16DG     H20  365   4.621   0.619   2.262  0.3702 -0.5526 -0.3034
   16DG     H21  366   4.680   0.458   2.230  1.6147 -0.8871  2.0559
   16DG     H22  367   4.709   0.652   2.471 -1.2684  0.0485  1.4156
   16DG     H23  368   4.829   0.521   2.468  0.9163  1.7738  2.1399
   17DG      C1  369   2.666   2.815   2.231 -0.2925 -0.0602  0.0466
   17DG      C2  370   2.704   2.120   2.141  0.2070 -0.2642 -0.3411
   17DG      H3  371   2.736   2.818   2.314  0.6710 -0.9805 -0.7122
   17DG      H4  372   2.609   2.908   2.236  0.6416  0.7103 -2.1229
   17DG      H5  373   2.721   2.834   2.138 -0.6277  0.8353  0.0207
   17DG      H6  374   2.795   2.070   2.109 -0.5588 -2.0493  0.1345
   17DG      H7  375   2.619   2.052   2.137 -0.4728  0.5612 -0.2272
   17DG      H8  376   2.688   2.206   2.076  0.2171  1.5737  1.9798
   17DG      O9  377   2.594   2.690   2.219  0.0931 -0.1927  0.0911
   17DG     O10  378   2.710   2.160   2.274 -0.3154  0.0431  0.2174
   17DG     C11  379   2.541   2.636   2.346  0.8239 -0.1678 -0.7072
   17DG     C12  380   2.805   2.267   2.296 -0.6654  0.1305 -0.5842
   17DG     H13  381   2.461   2.567   2.318  0.4802  0.1002 -0.3967
   17DG     H14  382   2.490   2.723   2.388 -0.1035 -0.5122 -1.0971
   17DG     H15  383   2.831   2.336   2.216 -0.9778 -0.6160 -1.3477
   17DG     H16  384   2.896   2.213   2.323  1.3174  2.5105 -2.0780
   17DG     C17  385   2.634   2.554   2.446 -0.3090 -0.1431  0.5123
   17DG     C18  386   2.764   2.356   2.415  0.2605  0.7007  0.0988
   17DG     O19  387   2.663   2.441   2.363  0.0109  0.3011 -0.3033
   17DG     H20  388   2.585   2.520   2.537  0.7136  1.4784  1.7196
   17DG     H21  389   2.725   2.608   2.472  1.9349 -2.8238 -1.2157
   17DG     H22  390   2.737   2.298   2.503  1.4659 -1.0369 -0.6092
   17DG     H23  391   2.845   2.424   2.439  0.5755  0.9559 -1.5554
   18DG      C1  392   4.193   4.596   1.442  0.0147  0.5933  0.0748
   18DG      C2  393   3.966   4.384   0.731 -0.1933 -0.2064  0.4783
   18DG      H3  394   4.166   4.653   1.532 -1.7181  0.5918 -0.4009
   18DG      H4  395   4.271   4.655   1.394  2.6128 -0.4788  2.6808
   18DG      H5  396   4.243   4.507   1.481 -1.7433 -0.0191  1.0544
   18DG      H6  397   3.977   4.284   0.772  1.4986 -0.8370 -1.3867
   18DG      H7  398   3.880   4.388   0.664  0.0987  1.9837  0.1528
   18DG      H8  399   4.057   4.402   0.675 -0.2414 -0.8802  0.1709
   18DG      O9  400   4.070   4.569   1.377  0.6471  0.5888 -0.1423
   18DG     O10  401   3.957   4.475   0.838 -0.6582 -0.6740  0.2404
   18DG     C11  402   4.015   4.679   1.318  0.9940  0.6023  0.3780
   18DG     C12  403   3.849   4.450   0.925  1.0179 -0.2261  0.1211
   18DG     H13  404   4.084   4.732   1.252  0.1028  3.0299  1.2638
   18DG     H14  405   3.995   4.756   1.393 -0.0616 -1.0456  1.8537
   18DG     H15  406   3.877   4.359   0.978  1.0405 -0.7354 -0.7452
   18DG     H16  407   3.755   4.427   0.875  1.4519  0.5494 -1.0919
   18DG     C17  408   3.883   4.653   1.240  0.5618 -0.0520  0.3561
   18DG     C18  409   3.815   4.565   1.026  0.5089  0.3167 -0.6480
   18DG     O19  410   3.914   4.576   1.123  0.1510  0.0929 -0.4332
   18DG     H20  411   3.844   4.753   1.219 -1.9899 -0.9197  0.6101
   18DG     H21  412   3.806   4.611   1.304  0.3909  1.2842  1.0672
   18DG     H22  413   3.791   4.657   0.973 -2.4340  0.3028  0.4400
   18DG     H23  414   3.730   4.530   1.085  0.0115  2.3024 -0.1015
   19DG      C1  415   2.558   4.665   0.956 -0.7920  0.5596  0.1776
   19DG      C2  416   2.796   5.217   1.258 -0.2784 -0.8442 -0.0543
   19DG      H3  417   2.589   4.603   1.041 -1.1412  2.2705  1.6114
   19DG      H4  418   2.638   4.677   0.882  0.3421  2.2619  1.5820
   19DG      H5  419   2.478   4.604   0.915 -1.9736  2.6093 -0.7047
   19DG      H6  420   2.840   5.147   1.330  1.9867  2.2431  1.8523
   19DG      H7  421   2.865   5.219   1.174 -2.5967  0.4669 -2.0564
   19DG      H8  422   2.780   5.316   1.300 -2.7160 -1.0585 -0.3690
   19DG      O9  423   2.525   4.804   0.995  0.0888  0.1255  0.2563
   19DG     O10  424   2.672   5.162   1.220 -0.3886  0.3312 -0.1795
   19DG     C11  425   2.404   4.800   1.062  0.5285  0.6272 -0.1666
   19DG     C12  426   2.566   5.164   1.324  0.0713  0.9239 -0.8263
   19DG     H13  427   2.419   4.733   1.147  1.2039  1.2351  0.2007
   19DG     H14  428   2.337   4.761   0.986  0.4899 -0.9421  0.6228
   19DG     H15  429   2.557   5.259   1.376 -2.7486  0.1853  0.1787
   19DG     H16  430   2.580   5.108   1.417 -1.6571  1.6247 -0.0907
   19DG     C17  431   2.354   4.946   1.105  0.1962  0.7936  0.2835
   19DG     C18  432   2.432   5.107   1.257 -0.2799 -0.2265 -0.0332
   19DG     O19  433   2.467   4.993   1.176  0.4005  0.1069  0.0147
   19DG     H20  434   2.267   4.942   1.170 -0.4728 -2.1710 -0.6312
   19DG     H21  435   2.348   5.018   1.024 -0.6467 -0.4919 -0.8538
   19DG     H22  436   2.359   5.079   1.333 -2.1627  1.9730 -0.9107
   19DG     H23  437   2.388   5.196   1.212 -0.8113  0.1500  1.1892
   20DG      C1  438   2.733   1.592   4.595  0.5234  0.0281 -0.4961
   20DG      C2  439   2.093   1.412   4.625 -0.3455 -0.1059 -0.7713
   20DG      H3  440   2.750   1.593   4.487  2.7447 -2.4191 -0.2693
   20DG      H4  441   2.745   1.489   4.627  1.5582  0.5644  0.9531
   20DG      H5  442   2.814   1.639   4.651 -0.3419  0.9810 -0.0161
   20DG      H6  443   2.039   1.450   4.711  1.3589 -0.1456  0.3517
   20DG      H7  444   2.030   1.391   4.538  0.4907 -1.8109 -0.9949
   20DG      H8  445   2.124   1.311   4.651 -2.7462 -0.7111  0.0322
   20DG      O9  446   2.602   1.631   4.645  0.3286 -0.7616  0.3005
   20DG     O10  447   2.196   1.497   4.592 -0.3402  0.0323 -0.2128
   20DG     C11  448   2.577   1.767   4.647  0.7697  0.0351 -0.3171
   20DG     C12  449   2.133   1.619   4.547 -1.1000 -0.2692  0.3349
   20DG     H13  450   2.605   1.821   4.556 -0.4453  1.2535  0.0057
   20DG     H14  451   2.636   1.812   4.727 -0.1612  1.3100 -0.3144
   20DG     H15  452   2.029   1.642   4.568 -0.5217  2.6976  0.4815
   20DG     H16  453   2.144   1.627   4.439 -0.7136 -1.0168  0.3123
   20DG     C17  454   2.434   1.786   4.688 -0.2419 -0.3574  0.3215
   20DG     C18  455   2.214   1.721   4.630 -0.0679 -0.0103  0.2419
   20DG     O19  456   2.353   1.711   4.599 -0.4694 -0.1313  0.0541
   20DG     H20  457   2.420   1.893   4.676  0.2456 -0.2301  0.8396
   20DG     H21  458   2.418   1.769   4.795 -0.9082  0.8533  0.4205
   20DG     H22  459   2.170   1.819   4.610  1.3048  0.1258 -2.6044
   20DG     H23  460   2.196   1.704   4.736  0.4850  0.4125  0.4089
   21DG      C1  461   5.250   4.877   0.696  0.0735 -0.3810 -0.2526
   21DG      C2  462   4.710   4.531   0.783  0.1953  0.3161 -0.1220
   21DG      H3  463   5.240   4.817   0.606  0.7603 -1.4441  0.3528
   21DG      H4  464   5.326   4.829   0.759  1.0057 -0.7889 -1.6402
   21DG      H5  465   5.299   4.970   0.666 -0.0191 -0.5469 -0.9330
   21DG      H6  466   4.607   4.520   0.818  0.0337  1.1139 -0.3147
   21DG      H7  467   4.707   4.608   0.705 -1.5545  1.6016  1.1080
   21DG      H8  468   4.753   4.440   0.742  2.2243  1.1882 -0.0360
   21DG      O9  469   5.128   4.888   0.769 -0.7413 -0.3343 -0.3459
   21DG     O10  470   4.784   4.583   0.892  0.1449  0.3037 -0.3907
   21DG     C11  471   5.020   4.952   0.699 -0.4042  0.1162  0.2769
   21DG     C12  472   4.730   4.688   0.965 -0.0085  0.1893 -0.0003
   21DG     H13  473   4.989   4.882   0.622 -0.3359 -1.5427  1.7079
   21DG     H14  474   5.051   5.044   0.648  0.0176 -0.8592 -1.2854
   21DG     H15  475   4.784   4.696   1.059 -0.1735 -1.1203  0.2262
   21DG     H16  476   4.627   4.658   0.985 -0.6494  2.9786  1.3936
   21DG     C17  477   4.901   4.964   0.798  0.2447 -0.1141  0.2698
   21DG     C18  478   4.744   4.827   0.909 -0.3097  0.6567  0.0090
   21DG     O19  479   4.867   4.832   0.836  0.3425  1.0216  0.0221
   21DG     H20  480   4.822   5.007   0.736  1.0154  1.0308  0.0648
   21DG     H21  481   4.920   5.028   0.884  0.8135  1.5804 -1.0591
   21DG     H22  482   4.669   4.848   0.833  1.0159 -1.9034 -2.1721
   21DG     H23  483   4.732   4.901   0.988  0.9397  0.5220  0.3538
   22DG      C1  484   4.416   0.575   1.438  0.2976  0.2174 -0.1933
   22DG      C2  485   4.551  -0.077   1.280 -0.1254 -0.1191  0.2587
   22DG      H3  486   4.323   0.568   1.381  1.8793  0.8075 -3.0502
   22DG      H4  487   4.493   0.579   1.360  0.7635  0.0700  0.2574
   22DG      H5  488   4.420   0.668   1.495  4.3868 -0.2557  0.6209
   22DG      H6  489   4.490  -0.117   1.200  0.0148  2.2376 -1.1324
   22DG      H7  490   4.630  -0.021   1.230  0.6040  0.8783  2.3703
   22DG      H8  491   4.603  -0.156   1.335  1.2482  0.6078  0.0578
   22DG      O9  492   4.436   0.458   1.517 -0.8206 -0.6048  0.4011
   22DG     O10  493   4.478   0.014   1.362 -0.5188  0.3686 -0.1017
   22DG     C11  494   4.331   0.423   1.603 -0.9704  0.7757 -0.0064
   22DG     C12  495   4.379  -0.049   1.439  0.6889 -0.4390  0.1527
   22DG     H13  496   4.237   0.425   1.548 -1.0812  2.8972  0.1770
   22DG     H14  497   4.329   0.492   1.688 -2.4783 -1.1595  1.6308
   22DG     H15  498   4.399  -0.144   1.488  0.3303 -0.8607 -0.4960
   22DG     H16  499   4.293  -0.066   1.375  0.7171  0.6092 -0.1870
   22DG     C17  500   4.356   0.277   1.651 -0.0177  0.7061 -0.5139
   22DG     C18  501   4.346   0.036   1.569  0.5210  0.6483 -0.0037
   22DG     O19  502   4.379   0.175   1.546  0.2752 -0.3511  0.2051
   22DG     H20  503   4.269   0.246   1.708  0.4535  1.8317  0.8701
   22DG     H21  504   4.437   0.266   1.722 -0.2891  0.1286 -0.2873
   22DG     H22  505   4.243   0.016   1.596  0.9445 -2.2400 -0.2021
   22DG     H23  506   4.401  -0.014   1.649  1.0148 -0.0309 -0.7501
   23DG      C1  507   5.391   1.371   4.377  0.1027  0.1081 -0.5677
   23DG      C2  508   5.730   1.529   4.925 -0.0346 -0.3527  0.0956
   23DG      H3  509   5.479   1.314   4.348 -0.9713 -1.5138 -0.7165
   23DG      H4  510   5.328   1.375   4.288  1.3783 -2.0873 -1.6541
   23DG      H5  511   5.322   1.323   4.446 -0.0082  0.2631 -0.5695
   23DG      H6  512   5.662   1.511   5.008  1.0493  0.2194  1.1326
   23DG      H7  513   5.791   1.442   4.897  1.3601  0.7639 -0.4924
   23DG      H8  514   5.815   1.586   4.962  1.3724 -1.9720 -0.4689
   23DG      O9  515   5.425   1.502   4.431  0.2108  0.5310 -0.0744
   23DG     O10  516   5.657   1.586   4.819 -0.1864 -0.6591  0.0659
   23DG     C11  517   5.324   1.588   4.480 -0.0404 -0.3731 -0.6214
   23DG     C12  518   5.598   1.705   4.860  0.3893 -0.2016 -0.6779
   23DG     H13  519   5.265   1.539   4.557  1.4211  1.2073  1.6396
   23DG     H14  520   5.262   1.626   4.399  1.5566  1.3964 -1.0821
   23DG     H15  521   5.658   1.781   4.910  0.5582 -1.2969  0.8117
   23DG     H16  522   5.520   1.664   4.923 -0.2351  0.8508 -0.7351
   23DG     C17  523   5.386   1.706   4.551  0.3449 -0.3349 -0.2162
   23DG     C18  524   5.536   1.764   4.735  0.4606 -0.3067  0.8404
   23DG     O19  525   5.465   1.666   4.658  0.9434 -0.1340 -0.3488
   23DG     H20  526   5.314   1.782   4.580  0.4701  0.5436 -2.0817
   23DG     H21  527   5.455   1.756   4.482 -1.4978  2.7796  0.0330
   23DG     H22  528   5.454   1.826   4.771 -0.0433 -0.7180  0.4192
   23DG     H23  529   5.595   1.833   4.674 -1.4348  0.5147 -0.1548
   24DG      C1  530   3.271   0.122   4.209  1.0793  0.3557 -0.8093
   24DG      C2  531   3.170   0.516   4.742 -1.1465  0.5005  0.4388
   24DG      H3  532   3.294   0.082   4.110 -1.4887 -3.9872  0.0445
   24DG      H4  533   3.214   0.041   4.256  1.3883  1.3176  1.3455
   24DG      H5  534   3.365   0.125   4.264  0.7645  0.5516 -0.2756
   24DG      H6  535   3.117   0.441   4.802  0.5618  0.3108  1.7775
   24DG      H7  536   3.273   0.491   4.765 -1.6946 -1.4086  1.0644
   24DG      H8  537   3.139   0.608   4.790  1.3103  0.1854  2.8772
   24DG      O9  538   3.197   0.239   4.222 -0.8142 -0.0127  0.0975
   24DG     O10  539   3.125   0.501   4.604  0.4623  0.2900 -0.4267
   24DG     C11  540   3.249   0.348   4.148  0.5178  0.3741 -0.1793
   24DG     C12  541   3.161   0.611   4.527 -0.9770 -0.2054  0.5071
   24DG     H13  542   3.259   0.330   4.041  0.7316 -2.1975  0.2152
   24DG     H14  543   3.353   0.366   4.176  0.0770  0.4713  1.4693
   24DG     H15  544   3.269   0.604   4.515 -0.9904 -1.4493  0.9625
   24DG     H16  545   3.141   0.709   4.570  2.6957  0.5975  0.7108
   24DG     C17  546   3.160   0.465   4.186  0.1742  0.4928  0.1059
   24DG     C18  547   3.103   0.598   4.379 -0.1339 -0.1272  0.0785
   24DG     O19  548   3.177   0.489   4.321 -0.2034  0.3315  0.3017
   24DG     H20  549   3.055   0.445   4.165  0.0431  0.0650  1.1365
   24DG     H21  550   3.188   0.547   4.120  1.9801 -0.0123  0.1860
   24DG     H22  551   2.996   0.581   4.369 -0.0421 -1.8472  1.4598
   24DG     H23  552   3.133   0.688   4.325  0.9220 -0.3074  0.3369
   25DG      C1  553   4.257   4.694   1.046  1.0772 -0.4504  0.1349
   25DG      C2  554   3.889   4.109   1.018  0.2401  0.6125  0.5793
   25DG      H3  555   4.332   4.756   1.095 -1.2031  1.3588  1.5474
   25DG      H4  556   4.161   4.746   1.042  1.3107 -0.0432 -0.3218
   25DG      H5  557   4.290   4.692   0.942 -2.3398  0.8066 -1.1182
   25DG      H6  558   3.871   4.111   0.911 -2.0686  2.6296  0.8979
   25DG      H7  559   3.893   4.006   1.053  2.4215  0.2150 -0.7274
   25DG      H8  560   3.795   4.147   1.060 -0.6403 -0.0118 -0.7541
   25DG      O9  561   4.242   4.566   1.111 -0.1017  0.0135  0.2516
   25DG     O10  562   3.996   4.192   1.050 -0.7204 -0.3860 -0.2448
   25DG     C11  563   4.371   4.501   1.102 -0.3366 -0.3525 -0.3543
   25DG     C12  564   4.119   4.132   1.015  0.7159 -0.0255 -0.0458
   25DG     H13  565   4.452   4.561   1.145 -0.4778 -0.3984 -0.0245
   25DG     H14  566   4.397   4.484   0.998  1.2287  2.3726 -0.5162
   25DG     H15  567   4.123   4.118   0.907  0.3563  2.8738 -0.5226
   25DG     H16  568   4.126   4.039   1.071  0.6357 -0.4342 -0.7018
   25DG     C17  569   4.365   4.359   1.177 -0.2446 -0.3443  0.0284
   25DG     C18  570   4.244   4.215   1.029  0.2159  0.5072 -0.0419
   25DG     O19  571   4.242   4.291   1.147 -0.6420 -0.6084 -0.5937
   25DG     H20  572   4.364   4.385   1.283  1.3937 -2.5208  0.6354
   25DG     H21  573   4.462   4.311   1.164 -0.3225 -0.3912 -0.3969
   25DG     H22  574   4.328   4.147   1.019  0.6977  0.9893  0.6209
   25DG     H23  575   4.251   4.294   0.954 -0.1683 -0.3219 -0.9662
   26DG      C1  576   0.908   0.274   4.037 -0.8410  0.3269  0.4213
   26DG      C2  577   0.657   0.214   4.671  0.1528 -0.3455  0.8079
   26DG      H3  578   0.850   0.293   4.127  0.4293 -0.3467  1.4309
   26DG      H4  579   0.891   0.331   3.946  2.2774 -1.6236 -1.6005
   26DG      H5  580   1.014   0.289   4.058 -0.5342  0.6761 -1.2531
   26DG      H6  581   0.691   0.142   4.745 -0.1069 -1.2664  0.0594
   26DG      H7  582   0.731   0.293   4.668 -1.1826  0.9281  0.1632
   26DG      H8  583   0.564   0.264   4.697 -0.1655 -0.6358  0.2415
   26DG      O9  584   0.887   0.137   4.009 -1.2620 -0.3085 -0.4858
   26DG     O10  585   0.652   0.164   4.543  0.0184 -0.2342  0.4064
   26DG     C11  586   0.755   0.095   4.019 -0.4242  0.5343 -0.2180
   26DG     C12  587   0.761   0.080   4.514 -0.0327 -0.0350 -0.1699
   26DG     H13  588   0.738   0.032   3.932  1.2364  1.4022 -1.2402
   26DG     H14  589   0.684   0.178   4.022 -1.2474 -0.1809  0.1072
   26DG     H15  590   0.764  -0.002   4.585 -0.6567  0.9345  1.0031
   26DG     H16  591   0.859   0.129   4.511  1.2087 -2.3698 -0.6771
   26DG     C17  592   0.744   0.018   4.149 -0.0525  0.3830  0.5968
   26DG     C18  593   0.743   0.011   4.387  0.3928 -0.3203  0.0170
   26DG     O19  594   0.755   0.094   4.267 -0.3666 -0.0335 -0.4476
   26DG     H20  595   0.811  -0.067   4.133  1.0907  0.8992  2.3981
   26DG     H21  596   0.645  -0.026   4.143 -0.1569  0.6880 -0.0115
   26DG     H22  597   0.821  -0.065   4.379  1.3729  0.7911 -1.3855
   26DG     H23  598   0.646  -0.040   4.380  0.9205 -1.1834 -1.8482
   27DG      C1  599   4.936   2.592   2.469 -0.3513 -0.5147 -1.1183
   27DG      C2  600   4.824   2.322   3.193 -0.3415  0.4271  0.2017
   27DG      H3  601   4.973   2.651   2.386  0.3979  3.8673  1.9414
   27DG      H4  602   4.830   2.616   2.481  0.0488  0.3341  1.3101
   27DG      H5  603   4.943   2.490   2.430  0.9734 -0.4059 -1.2091
   27DG      H6  604   4.862   2.326   3.295  0.1392  0.2023  0.0299
   27DG      H7  605   4.732   2.380   3.182 -0.7990 -0.5077 -1.1995
   27DG      H8  606   4.787   2.221   3.175  0.0617  0.2242  0.4864
   27DG      O9  607   5.027   2.627   2.570 -0.1937 -0.3571  0.3888
   27DG     O10  608   4.930   2.357   3.106 -0.0086 -0.1544 -0.0643
   27DG     C11  609   4.953   2.642   2.697  0.1135 -0.2692  0.6694
   27DG     C12  610   4.982   2.488   3.140  0.1136  0.2817 -0.1140
   27DG     H13  611   4.893   2.551   2.705 -0.5683  0.1313  0.2342
   27DG     H14  612   4.889   2.730   2.703 -0.5021 -0.7671  1.7964
   27DG     H15  613   5.032   2.468   3.235 -0.3800  1.2597  0.3674
   27DG     H16  614   4.900   2.550   3.176  0.3373 -0.5363  1.9768
   27DG     C17  615   5.055   2.634   2.807 -0.1344 -0.3860 -0.0185
   27DG     C18  616   5.064   2.551   3.032  0.3720  0.6499 -0.0915
   27DG     O19  617   4.984   2.586   2.925  0.4084 -0.3170 -0.2159
   27DG     H20  618   5.093   2.736   2.813 -3.8490  1.2768 -1.5554
   27DG     H21  619   5.140   2.568   2.788  0.6172  0.4191  0.4453
   27DG     H22  620   5.105   2.632   3.092  0.7553  0.5141 -0.1683
   27DG     H23  621   5.136   2.473   3.009 -1.2650 -1.2994  1.0252
   28DG      C1  622   3.643   3.646   4.981 -0.5859  0.3810 -0.5473
   28DG      C2  623   3.725   3.028   4.878  0.4801  0.2510 -0.3610
   28DG      H3  624   3.643   3.745   5.026 -4.4055 -0.1494  1.0403
   28DG      H4  625   3.730   3.595   5.021 -1.8329 -1.7305 -0.3689
   28DG      H5  626   3.552   3.599   5.019 -0.2352  0.9162  1.0193
   28DG      H6  627   3.747   3.068   4.977 -0.5637 -1.1937  0.5043
   28DG      H7  628   3.637   3.079   4.838  0.5292 -0.0600 -0.8785
   28DG      H8  629   3.694   2.923   4.885  1.0569  0.1664  1.2998
   28DG      O9  630   3.642   3.657   4.846  0.1311  0.5074  0.3817
   28DG     O10  631   3.844   3.037   4.799 -0.7465 -0.2308 -0.5507
   28DG     C11  632   3.606   3.553   4.760 -0.1796 -1.3579 -0.1547
   28DG     C12  633   3.842   3.143   4.695 -0.0034  0.3226 -0.4614
   28DG     H13  634   3.562   3.606   4.676 -2.8208 -0.7755  1.4711
   28DG     H14  635   3.522   3.499   4.805 -1.8024  0.6041 -0.6502
   28DG     H15  636   3.756   3.130   4.629  0.2643 -0.7142 -0.6281
   28DG     H16  637   3.925   3.111   4.632 -0.6212 -0.3492 -0.9501
   28DG     C17  638   3.715   3.472   4.701  0.3672 -0.5012 -0.2034
   28DG     C18  639   3.857   3.289   4.745 -0.3842 -0.1831  0.2618
   28DG     O19  640   3.732   3.353   4.769  0.2564  0.1519 -0.1963
   28DG     H20  641   3.802   3.537   4.709  0.1653 -0.1052 -1.0768
   28DG     H21  642   3.698   3.447   4.597 -0.0910 -0.0357 -0.2461
   28DG     H22  643   3.907   3.289   4.842  0.0849 -3.7705  0.1606
   28DG     H23  644   3.922   3.340   4.673 -1.6314 -1.1595 -1.6294
   29DG      C1  645   2.970   2.290   2.853 -0.2350  0.3377  0.9102
   29DG      C2  646   2.786   2.890   3.149  0.1170 -0.4476  0.5640
   29DG      H3  647   3.036   2.339   2.782  1.0734  0.6907  2.3148
   29DG      H4  648   2.867   2.283   2.818 -0.0437 -0.4705  0.4611
   29DG      H5  649   3.004   2.187   2.866 -5.6074 -1.8200  0.4372
   29DG      H6  650   2.796   2.948   3.241 -0.3181  3.1093 -1.4508
   29DG      H7  651   2.825   2.954   3.070 -1.4774 -0.8070 -0.5569
   29DG      H8  652   2.681   2.878   3.125  0.1149  1.1040 -0.3085
   29DG      O9  653   2.971   2.374   2.982  0.1296 -0.1212  0.3541
   29DG     O10  654   2.869   2.774   3.150  0.3355  0.1648 -0.1591
   29DG     C11  655   3.086   2.367   3.052  0.0327  0.2048  0.1417
   29DG     C12  656   3.007   2.809   3.156 -0.4257 -1.0685  0.1738
   29DG     H13  657   3.160   2.321   2.986 -0.4699  0.5463 -0.6752
   29DG     H14  658   3.068   2.305   3.140 -4.8791  1.4458  0.2781
   29DG     H15  659   3.020   2.899   3.217  0.9129 -0.2290 -1.2899
   29DG     H16  660   3.054   2.834   3.061 -0.5060 -1.2435  0.0880
   29DG     C17  661   3.132   2.510   3.085 -0.5106 -0.7722  0.4309
   29DG     C18  662   3.066   2.694   3.226  0.3321 -0.3578 -0.1797
   29DG     O19  663   3.035   2.571   3.171  0.1753  0.3115  0.1018
   29DG     H20  664   3.152   2.570   2.996 -0.0015 -1.6593 -0.0592
   29DG     H21  665   3.226   2.496   3.139 -0.4501 -1.1049  0.2424
   29DG     H22  666   3.172   2.717   3.237  0.5819 -1.5870  0.1412
   29DG     H23  667   3.016   2.696   3.323  1.4159  0.4930  0.3822
   30DG      C1  668   0.412   2.562   0.507  0.3631 -0.2605  0.2624
   30DG      C2  669   0.305   3.224   0.422 -0.9807  0.4515  0.2603
   30DG      H3  670   0.323   2.542   0.448 -0.7682  0.4620  1.6664
   30DG      H4  671   0.423   2.472   0.566 -0.1605 -0.9386 -0.6415
   30DG      H5  672   0.499   2.594   0.449  0.7748  0.2210  1.1326
   30DG      H6  673   0.341   3.208   0.320  0.6636 -0.0026  0.8721
   30DG      H7  674   0.199   3.197   0.427 -0.8562 -0.0384  0.3458
   30DG      H8  675   0.318   3.328   0.450 -2.2473  0.2824  1.5592
   30DG      O9  676   0.365   2.658   0.595 -0.9119  0.1760 -0.5996
   30DG     O10  677   0.367   3.144   0.517  0.4216  0.4793 -0.5542
   30DG     C11  678   0.453   2.704   0.693 -0.4496  0.2731  0.5564
   30DG     C12  679   0.308   3.169   0.647  0.1042 -0.1616  0.9328
   30DG     H13  680   0.539   2.752   0.647 -0.7354  1.4876  1.2237
   30DG     H14  681   0.487   2.624   0.758 -0.1042  0.6810  0.8878
   30DG     H15  682   0.199   3.161   0.641  0.2287 -1.1845 -0.6579
   30DG     H16  683   0.348   3.264   0.681  2.9378  0.4422 -3.3249
   30DG     C17  684   0.391   2.816   0.777  0.7014  0.2846  0.9473
   30DG     C18  685   0.359   3.060   0.749  0.3336  0.4352 -0.1638
   30DG     O19  686   0.354   2.926   0.691 -0.1654 -0.6276  0.1027
   30DG     H20  687   0.472   2.848   0.843 -0.0582  0.9303  1.5935
   30DG     H21  688   0.317   2.773   0.844  0.2570 -0.2558  0.1231
   30DG     H22  689   0.462   3.081   0.777  0.8201  0.2090 -1.6846
   30DG     H23  690   0.298   3.063   0.839  0.8651 -0.3472  0.2326
   31DG      C1  691   2.432   0.531   2.198  0.6366  0.4358 -0.3645
   31DG      C2  692   1.864   0.372   1.881  0.0485 -0.2814 -0.2274
   31DG      H3  693   2.389   0.477   2.282  0.3816  1.6914  0.3321
   31DG      H4  694   2.495   0.611   2.238 -1.4010  1.7164  0.4053
   31DG      H5  695   2.488   0.457   2.140  0.5304 -1.4989  1.8640
   31DG      H6  696   1.761   0.388   1.849  0.0218  1.6665  0.6593
   31DG      H7  697   1.912   0.335   1.791 -0.3886  0.0665 -0.6090
   31DG      H8  698   1.873   0.290   1.952 -0.0335 -2.0851 -2.2323
   31DG      O9  699   2.327   0.585   2.122 -0.0114  0.2679 -0.5446
   31DG     O10  700   1.911   0.499   1.921 -0.5200 -0.0948  0.4310
   31DG     C11  701   2.251   0.663   2.206  0.1171  0.7672  0.2901
   31DG     C12  702   1.836   0.549   2.032  0.3163  0.6361  0.6656
   31DG     H13  703   2.318   0.747   2.223  1.1555  0.1063 -0.3993
   31DG     H14  704   2.228   0.618   2.303  3.2634  0.7869  1.1404
   31DG     H15  705   1.833   0.474   2.111  3.4749  1.5401  1.8265
   31DG     H16  706   1.733   0.574   2.010 -0.5153 -2.6816  0.3845
   31DG     C17  707   2.124   0.727   2.151  0.1786 -0.4738  0.4574
   31DG     C18  708   1.908   0.669   2.090 -0.2041  0.0612 -0.1902
   31DG     O19  709   2.046   0.630   2.102  0.1359  0.3994 -0.1500
   31DG     H20  710   2.148   0.804   2.078 -0.0933  1.6888  2.5365
   31DG     H21  711   2.084   0.781   2.236  0.6543 -0.4629  0.6755
   31DG     H22  712   1.910   0.753   2.021 -1.6648  0.4119  0.1703
   31DG     H23  713   1.874   0.684   2.192  0.7373 -5.5725  1.3005
   32DG      C1  714   1.956   2.610   0.355 -0.2862  0.1051  0.8026
   32DG      C2  715   1.417   2.760  -0.186  0.1418 -0.0694  0.4523
   32DG      H3  716   1.907   2.528   0.407 -0.2648  0.4917  1.4358
   32DG      H4  717   1.929   2.704   0.404 -1.5619  0.1613  0.0338
   32DG      H5  718   2.064   2.598   0.364 -0.0286 -1.0103 -2.4461
   32DG      H6  719   1.394   2.699  -0.273  0.5028 -0.3347  0.5398
   32DG      H7  720   1.351   2.732  -0.104 -0.7784 -0.6842 -0.4792
   32DG      H8  721   1.418   2.862  -0.225 -1.3000 -0.2889 -0.2149
   32DG      O9  722   1.915   2.596   0.221 -0.5998  0.2932 -0.5675
   32DG     O10  723   1.546   2.732  -0.152  0.0290 -0.0148 -0.5645
   32DG     C11  724   1.973   2.675   0.122 -0.2965  0.1845  0.7500
   32DG     C12  725   1.577   2.592  -0.147  0.1197 -0.3248  0.0762
   32DG     H13  726   2.081   2.672   0.134 -0.1170  2.0053 -0.0914
   32DG     H14  727   1.944   2.779   0.134  0.4921  0.3434  1.3486
   32DG     H15  728   1.545   2.544  -0.240  0.3137  0.7598 -0.5563
   32DG     H16  729   1.528   2.539  -0.065 -0.2517  0.8895  0.6632
   32DG     C17  730   1.925   2.632  -0.019 -0.8873  0.3561 -0.0948
   32DG     C18  731   1.725   2.566  -0.134  0.3028 -0.8039  0.2531
   32DG     O19  732   1.784   2.628  -0.020 -0.1447  0.3658  0.2666
   32DG     H20  733   1.976   2.539  -0.044 -0.3978  0.8161 -0.8458
   32DG     H21  734   1.973   2.698  -0.091  0.2388  0.4876  0.7323
   32DG     H22  735   1.738   2.458  -0.129 -1.0392 -0.9261  3.4156
   32DG     H23  736   1.771   2.613  -0.221 -0.4024  0.9723  0.7975
   33DG      C1  737   0.996   5.172   0.708  0.4387 -0.2212 -0.0931
   33DG      C2  738   0.460   5.361   0.972  0.2255 -0.3552  0.2222
   33DG      H3  739   1.090   5.117   0.697 -0.0588 -1.1939  0.4289
   33DG      H4  740   1.020   5.278   0.722  1.1518 -0.2093 -1.2579
   33DG      H5  741   0.926   5.162   0.625  2.6216  1.2464 -2.2753
   33DG      H6  742   0.426   5.351   1.075  0.6708  0.7085  0.4815
   33DG      H7  743   0.480   5.463   0.941 -1.3289  0.3974  1.5359
   33DG      H8  744   0.378   5.317   0.916  0.5181 -0.1816 -0.3527
   33DG      O9  745   0.943   5.136   0.835 -0.0426 -0.1468 -0.2206
   33DG     O10  746   0.571   5.279   0.963  0.2774 -0.0607  0.0504
   33DG     C11  747   0.921   4.995   0.852 -0.3807  0.2570  0.3088
   33DG     C12  748   0.531   5.146   1.001 -0.4053  0.6592  0.0502
   33DG     H13  749   1.019   4.948   0.849 -1.1498 -1.4434  0.8207
   33DG     H14  750   0.852   4.965   0.774  0.0918 -1.4707  0.5059
   33DG     H15  751   0.434   5.114   0.961 -0.1922  0.1793 -0.0922
   33DG     H16  752   0.523   5.141   1.109  0.6244 -2.0577  0.0746
   33DG     C17  753   0.862   4.957   0.993 -0.4195  0.6691  0.4920
   33DG     C18  754   0.629   5.036   0.958 -0.9837  0.3703  0.7679
   33DG     O19  755   0.758   5.051   1.022 -0.0854  0.6478  0.3586
   33DG     H20  756   0.939   4.975   1.069  1.1988  0.1965 -0.9735
   33DG     H21  757   0.824   4.855   0.984  3.3381 -0.9883  1.5413
   33DG     H22  758   0.584   4.940   0.987 -0.6007  0.6190  2.2122
   33DG     H23  759   0.656   5.039   0.852  1.2615 -0.8663  1.2525
   34DG      C1  760   5.230   1.025   2.339 -0.2349 -0.1356  0.2066
   34DG      C2  761   4.541   0.917   2.241  0.4855  0.2309 -0.0673
   34DG      H3  762   5.281   0.951   2.401 -0.2823  0.2696  0.7373
   34DG      H4  763   5.289   1.116   2.338  0.2177 -0.3713  1.8872
   34DG      H5  764   5.230   0.996   2.234  1.3078  1.2973 -0.2222
   34DG      H6  765   4.478   1.005   2.247  0.0028 -0.0741 -0.5195
   34DG      H7  766   4.569   0.887   2.140 -0.5003 -1.8837  0.2239
   34DG      H8  767   4.471   0.836   2.260 -1.6263  1.2667 -2.6831
   34DG      O9  768   5.096   1.055   2.370 -0.0674  0.3286  0.6676
   34DG     O10  769   4.653   0.911   2.330 -0.2424  0.0448 -0.3431
   34DG     C11  770   5.088   1.098   2.502 -0.3510 -0.1851 -1.1253
   34DG     C12  771   4.618   0.969   2.457 -0.0319 -0.3826 -0.1529
   34DG     H13  772   5.068   1.206   2.503 -1.4747 -0.3570  0.5730
   34DG     H14  773   5.179   1.088   2.560  0.5512  2.8264 -1.8414
   34DG     H15  774   4.531   0.920   2.502  0.5012 -0.0403  1.3168
   34DG     H16  775   4.593   1.074   2.444 -0.4949 -0.4644  0.0565
   34DG     C17  776   4.972   1.028   2.574  0.5880  0.1085  0.4012
   34DG     C18  777   4.739   0.965   2.558 -0.1752 -0.0299 -0.1436
   34DG     O19  778   4.850   1.027   2.502  0.0119  0.4314  0.3426
   34DG     H20  779   4.947   1.076   2.668 -1.8511 -2.3449  1.1428
   34DG     H21  780   4.998   0.925   2.600 -2.9320 -1.0517 -0.1938
   34DG     H22  781   4.714   1.019   2.649 -0.7317  1.4903 -1.1755
   34DG     H23  782   4.760   0.861   2.586 -0.7664  0.0036  0.4534
   35DG      C1  783   3.386   3.663   3.443 -0.1539 -0.3034  0.2840
   35DG      C2  784   4.012   3.340   3.488 -0.2841  0.2335  0.6448
   35DG      H3  785   3.367   3.659   3.550 -1.5573  0.5458  0.0920
   35DG      H4  786   3.292   3.670   3.388  0.5411  0.1596 -0.8826
   35DG      H5  787   3.441   3.751   3.410 -1.4655 -0.3369 -2.2669
   35DG      H6  788   4.116   3.360   3.462  0.0326 -2.7667 -0.9145
   35DG      H7  789   3.943   3.369   3.409 -1.1770 -0.0491  1.3132
   35DG      H8  790   4.002   3.403   3.576  2.8992  0.6703  0.8355
   35DG      O9  791   3.454   3.541   3.402  0.6292 -0.2504  0.2832
   35DG     O10  792   4.007   3.207   3.516 -0.1521 -0.4907  0.2135
   35DG     C11  793   3.582   3.528   3.449 -0.1468  0.5598 -0.8057
   35DG     C12  794   3.889   3.187   3.594 -0.8035 -0.3652 -0.0053
   35DG     H13  795   3.588   3.576   3.547 -0.1149  1.7741 -1.3924
   35DG     H14  796   3.660   3.565   3.382 -0.8173 -0.7631 -2.3892
   35DG     H15  797   3.905   3.243   3.686 -0.8969 -0.9991  0.4011
   35DG     H16  798   3.894   3.082   3.622 -1.2532 -0.4474 -0.2162
   35DG     C17  799   3.596   3.375   3.478  0.3945 -0.3313  0.3342
   35DG     C18  800   3.749   3.205   3.530 -0.2056  0.0535  0.0259
   35DG     O19  801   3.722   3.345   3.528 -0.6609  0.0207  0.8851
   35DG     H20  802   3.582   3.322   3.384 -2.4169 -0.4362  0.7526
   35DG     H21  803   3.525   3.348   3.555 -0.2012  0.5585  0.1175
   35DG     H22  804   3.754   3.153   3.434  1.4484  0.0704  0.0752
   35DG     H23  805   3.675   3.146   3.586 -2.0290  2.6909  0.5778
   36DG      C1  806   0.401   3.538   3.348 -0.0268 -0.2984  0.3903
   36DG      C2  807   0.417   2.760   3.585 -0.5869  0.8216  0.0629
   36DG      H3  808   0.437   3.641   3.361  1.1600 -0.2971 -2.2055
   36DG      H4  809   0.300   3.527   3.386  0.3227 -1.6172  1.0136
   36DG      H5  810   0.396   3.522   3.241  0.0773  4.3829 -0.5190
   36DG      H6  811   0.419   2.667   3.643  1.0306  1.2665  0.7724
   36DG      H7  812   0.318   2.770   3.541 -0.8035  0.4717  0.4652
   36DG      H8  813   0.482   2.739   3.500  2.5636  0.6140  2.3402
   36DG      O9  814   0.485   3.440   3.403 -0.5180 -0.0798  0.0373
   36DG     O10  815   0.469   2.873   3.653  0.1278 -0.5295 -0.8489
   36DG     C11  816   0.501   3.462   3.540 -0.6232  0.3206  0.3433
   36DG     C12  817   0.449   2.984   3.572  0.3374 -0.6286  0.2791
   36DG     H13  818   0.409   3.468   3.598 -0.5206 -3.5802  1.1466
   36DG     H14  819   0.571   3.540   3.570 -0.2087  0.2054 -0.3221
   36DG     H15  820   0.345   3.019   3.578  0.5342  0.2680 -0.9872
   36DG     H16  821   0.470   2.960   3.468 -0.0166  0.0907  0.0310
   36DG     C17  822   0.554   3.325   3.592 -0.0940  0.0435  0.4855
   36DG     C18  823   0.543   3.101   3.604 -0.1462 -0.0023 -0.0230
   36DG     O19  824   0.475   3.216   3.562  0.3540  0.2389 -0.2885
   36DG     H20  825   0.556   3.333   3.701 -1.7479 -1.8321  0.7215
   36DG     H21  826   0.655   3.305   3.557 -0.1790 -0.7517  0.6673
   36DG     H22  827   0.580   3.094   3.706 -0.8484 -1.1955  0.1748
   36DG     H23  828   0.629   3.080   3.541  0.5835  1.0414  0.5955
   37DG      C1  829   1.689   0.671   0.261 -0.5022  0.1851 -0.4086
   37DG      C2  830   1.074   0.985   0.499  0.1946  0.5760  0.2218
   37DG      H3  831   1.793   0.699   0.244  0.4662 -3.1797 -0.7379
   37DG      H4  832   1.659   0.601   0.183 -1.6900 -0.3308  0.4942
   37DG      H5  833   1.689   0.625   0.360 -0.4126  0.0061 -0.4898
   37DG      H6  834   0.980   0.975   0.444 -1.8810 -1.1135  3.7293
   37DG      H7  835   1.088   0.882   0.531  1.2427  0.9319  0.9381
   37DG      H8  836   1.046   1.040   0.588  0.7716  1.3808 -0.0774
   37DG      O9  837   1.621   0.790   0.272  0.1243 -0.2383  0.3386
   37DG     O10  838   1.176   1.034   0.409  0.1203  0.5169  0.1076
   37DG     C11  839   1.598   0.866   0.151 -0.2843  0.0126  0.0923
   37DG     C12  840   1.169   0.985   0.274  0.5124  0.1125 -0.3471
   37DG     H13  841   1.561   0.794   0.079 -0.6119 -1.4809  1.6817
   37DG     H14  842   1.684   0.918   0.110 -1.1188  1.4648  0.1060
   37DG     H15  843   1.074   1.017   0.230  1.3406  2.1880 -0.7212
   37DG     H16  844   1.161   0.877   0.292 -0.6146  0.5355  2.2006
   37DG     C17  845   1.510   0.980   0.164 -0.0169  0.3721 -0.4165
   37DG     C18  846   1.283   1.019   0.188 -0.5014 -0.0661 -0.4148
   37DG     O19  847   1.397   0.960   0.245 -0.3026  0.5826  0.4241
   37DG     H20  848   1.483   0.991   0.059  0.4142 -2.0493 -0.8346
   37DG     H21  849   1.569   1.066   0.197 -0.4145  0.1582  0.9385
   37DG     H22  850   1.275   0.969   0.092  0.6301  2.0282 -1.6705
   37DG     H23  851   1.310   1.124   0.173  0.8088  0.3201  3.4029
   38DG      C1  852   2.528   0.690   0.770 -0.1785 -0.2183  0.3930
   38DG      C2  853   2.836   1.241   0.818 -0.0321 -0.0560 -0.2338
   38DG      H3  854   2.591   0.689   0.859  2.0888 -2.1437 -1.1221
   38DG      H4  855   2.550   0.592   0.729 -3.5713 -0.4639 -1.1515
   38DG      H5  856   2.426   0.685   0.808  1.0159  0.1670  4.1066
   38DG      H6  857   2.825   1.203   0.919 -2.3338 -1.8760 -1.0679
   38DG      H7  858   2.940   1.248   0.786 -0.4024 -3.9741 -3.0821
   38DG      H8  859   2.803   1.344   0.832  0.2347  0.1326 -0.9369
   38DG      O9  860   2.569   0.799   0.695  0.7343 -0.0256  0.2108
   38DG     O10  861   2.760   1.176   0.727 -0.3459  0.1869 -0.3511
   38DG     C11  862   2.537   0.791   0.554 -0.0289  0.1105 -0.4839
   38DG     C12  863   2.788   1.199   0.588  0.2315  0.5408  0.1514
   38DG     H13  864   2.437   0.752   0.533 -0.4005  1.3736 -1.1367
   38DG     H14  865   2.604   0.717   0.509 -0.2224 -0.0015 -0.5908
   38DG     H15  866   2.887   1.160   0.569  0.4533  0.8644  0.6264
   38DG     H16  867   2.794   1.307   0.573  1.7492  0.7660  2.0232
   38DG     C17  868   2.562   0.926   0.483  1.3105  0.1947 -0.0509
   38DG     C18  869   2.687   1.120   0.494  0.3267 -0.3162 -1.1693
   38DG     O19  870   2.676   0.985   0.536 -0.3780 -0.4932  0.1410
   38DG     H20  871   2.465   0.976   0.494  1.8395  1.4657 -0.9511
   38DG     H21  872   2.576   0.899   0.378  1.4135 -1.4272  0.3431
   38DG     H22  873   2.587   1.164   0.491  0.1380 -0.7726 -1.8816
   38DG     H23  874   2.715   1.124   0.388 -0.4293 -0.2108 -1.3711
   39DG      C1  875   1.021   1.545   4.624  0.0978 -0.1185  0.4338
   39DG      C2  876   0.882   0.920   4.970  0.4815 -0.2959  0.5820
   39DG      H3  877   1.004   1.649   4.654 -2.8470 -0.5320  0.5478
   39DG      H4  878   0.958   1.526   4.537 -1.5008 -0.6385  1.6520
   39DG      H5  879   1.119   1.511   4.592  0.3247 -0.9883  1.9577
   39DG      H6  880   0.881   0.859   4.880 -1.3811 -0.0622  0.4056
   39DG      H7  881   0.980   0.904   5.015  1.3787  1.2139 -0.7641
   39DG      H8  882   0.793   0.900   5.030 -0.4733  2.9891  0.4388
   39DG      O9  883   0.977   1.469   4.731  0.0875 -0.5301 -0.2954
   39DG     O10  884   0.875   1.060   4.935  0.0822 -0.0782 -0.0108
   39DG     C11  885   1.062   1.496   4.849 -0.2152 -0.1837  1.0427
   39DG     C12  886   0.868   1.147   5.047  0.3737 -0.4727  0.0019
   39DG     H13  887   1.085   1.600   4.870  2.3908 -1.0468  2.9631
   39DG     H14  888   1.156   1.441   4.850 -0.8282 -1.4573 -1.8004
   39DG     H15  889   0.971   1.143   5.083  0.9332 -0.7485 -1.5302
   39DG     H16  890   0.807   1.098   5.122  0.8362 -1.1647 -0.0613
   39DG     C17  891   0.982   1.456   4.963  0.6492 -0.1251 -0.5814
   39DG     C18  892   0.824   1.289   5.026 -1.1607  0.1641 -0.4103
   39DG     O19  893   0.932   1.328   4.939 -0.0472 -0.8031 -0.2349
   39DG     H20  894   0.896   1.522   4.976  2.5303  1.8237  3.4209
   39DG     H21  895   1.042   1.465   5.053 -0.3976 -0.1904  0.1408
   39DG     H22  896   0.725   1.291   4.981 -1.6010  1.6747  0.5704
   39DG     H23  897   0.834   1.336   5.124 -0.2912 -0.6441 -0.0906
   40DG      C1  898   0.310   2.109   3.054 -0.1020  0.5344  0.2329
   40DG      C2  899   0.743   2.604   3.138 -0.5925 -0.2345 -0.8310
   40DG      H3  900   0.288   2.002   3.054  1.1502  0.2164  2.2656
   40DG      H4  901   0.366   2.122   2.962  0.1942  1.2210  0.5033
   40DG      H5  902   0.209   2.151   3.050 -0.2955  0.0398 -0.1705
   40DG      H6  903   0.818   2.543   3.088 -0.6211  1.4411 -3.0903
   40DG      H7  904   0.684   2.650   3.058 -2.3424  0.5998  0.8637
   40DG      H8  905   0.783   2.677   3.208 -2.0307 -1.0064  0.8707
   40DG      O9  906   0.383   2.149   3.166  0.0443  0.0437 -0.5248
   40DG     O10  907   0.656   2.518   3.217  0.0199 -0.4047 -0.6010
   40DG     C11  908   0.309   2.171   3.288  0.1676 -0.5336 -0.8570
   40DG     C12  909   0.566   2.569   3.316 -0.0711  0.3591  0.7586
   40DG     H13  910   0.273   2.076   3.326  0.0770 -0.6392 -1.2005
   40DG     H14  911   0.219   2.231   3.276  0.7447  0.5555  0.0924
   40DG     H15  912   0.487   2.630   3.273  0.5067  1.7499  1.6242
   40DG     H16  913   0.620   2.630   3.388  2.1023  1.1976 -1.4524
   40DG     C17  914   0.407   2.241   3.386  0.1423 -0.1314  0.4859
   40DG     C18  915   0.509   2.451   3.403  1.0820  0.3922  0.2574
   40DG     O19  916   0.458   2.358   3.318  0.1582  0.0956  0.7085
   40DG     H20  917   0.487   2.172   3.413  1.0801  0.5034 -0.5633
   40DG     H21  918   0.349   2.268   3.474  1.0092  0.0960  1.0020
   40DG     H22  919   0.587   2.415   3.470 -0.2658  0.8295  2.1433
   40DG     H23  920   0.431   2.487   3.471  0.1275  2.0591 -1.5917
   41DG      C1  921   4.586   1.888   2.261 -0.7293 -0.2112 -0.2724
   41DG      C2  922   3.939   1.704   2.149 -0.1306  0.0054  0.2505
   41DG      H3  923   4.584   1.841   2.162 -0.1994  0.3970 -0.5775
   41DG      H4  924   4.685   1.875   2.304 -0.7264 -0.4394 -0.3462
   41DG      H5  925   4.563   1.990   2.232 -3.5967 -0.8994 -0.7291
   41DG      H6  926   3.838   1.675   2.177 -1.7089  1.2681 -3.5084
   41DG      H7  927   3.928   1.795   2.090 -2.0983 -0.9482 -0.9361
   41DG      H8  928   3.993   1.622   2.103  2.1883  1.7144 -0.2558
   41DG      O9  929   4.480   1.838   2.341  0.0531 -0.3654 -0.3038
   41DG     O10  930   4.014   1.751   2.263 -0.3142  0.7709 -0.0886
   41DG     C11  931   4.499   1.703   2.378  0.2104 -0.8728 -0.4895
   41DG     C12  932   4.031   1.642   2.357  0.3736  0.7346 -0.9263
   41DG     H13  933   4.586   1.686   2.442 -1.2610  1.5738  2.4309
   41DG     H14  934   4.491   1.635   2.294  1.5343  0.6169 -1.8757
   41DG     H15  935   4.052   1.550   2.303 -1.3034  0.6269 -1.4352
   41DG     H16  936   3.938   1.614   2.407  1.7892 -1.6206  0.6201
   41DG     C17  937   4.379   1.670   2.471 -0.4465  0.1362  0.2013
   41DG     C18  938   4.143   1.671   2.461  0.3437 -0.4432  0.1387
   41DG     O19  939   4.260   1.684   2.387  0.1828  0.4793 -0.0914
   41DG     H20  940   4.384   1.750   2.545 -1.1621 -1.1676  1.7059
   41DG     H21  941   4.395   1.579   2.528 -1.7521  0.3099  0.8777
   41DG     H22  942   4.136   1.756   2.529  1.7582 -0.6370  0.5491
   41DG     H23  943   4.143   1.584   2.527 -0.2127 -0.6695 -0.1498
   42DG      C1  944   3.962   0.859   2.669 -0.2552 -0.4091  0.2020
   42DG      C2  945   4.722   0.789   2.915  0.3548  0.0131 -0.1004
   42DG      H3  946   3.961   0.868   2.560  1.3331 -0.3625  0.1720
   42DG      H4  947   3.967   0.960   2.709  1.5792 -0.3109 -0.1711
   42DG      H5  948   3.863   0.827   2.700 -0.7868  0.1905 -0.8092
   42DG      H6  949   4.824   0.794   2.878  0.0401  2.9362 -0.8004
   42DG      H7  950   4.702   0.877   2.977  0.3271 -0.7382  0.9911
   42DG      H8  951   4.706   0.704   2.982  0.5512  1.4847  1.8974
   42DG      O9  952   4.067   0.783   2.723  0.5505 -0.3868 -0.4030
   42DG     O10  953   4.649   0.790   2.796  0.0167  0.1734 -0.0298
   42DG     C11  954   4.060   0.784   2.872  0.5507  0.7103 -0.2935
   42DG     C12  955   4.518   0.844   2.800  0.2936 -0.1846  0.5683
   42DG     H13  956   3.979   0.734   2.924  1.1047  0.2151  0.1131
   42DG     H14  957   4.044   0.889   2.896  0.3263  1.5999 -3.8518
   42DG     H15  958   4.484   0.843   2.696  0.3466 -1.6740  0.5393
   42DG     H16  959   4.510   0.948   2.830 -2.6182  0.1221 -0.8928
   42DG     C17  960   4.194   0.728   2.921 -0.6645  0.7423 -0.4898
   42DG     C18  961   4.421   0.756   2.886  0.1673  0.0589 -0.3075
   42DG     O19  962   4.290   0.805   2.866 -0.3589  0.2672  0.8255
   42DG     H20  963   4.208   0.626   2.885  1.1080  1.3533 -1.6651
   42DG     H21  964   4.191   0.731   3.030 -0.5744  0.7116 -0.4867
   42DG     H22  965   4.432   0.651   2.860 -3.0815 -1.1304  2.3605
   42DG     H23  966   4.453   0.770   2.989  0.3425  0.2900 -0.3927
   43DG      C1  967   0.019   3.542   2.983 -0.1347 -0.0767  0.7729
   43DG      C2  968   0.294   4.012   2.664  0.5479 -0.3648 -0.6343
   43DG      H3  969  -0.050   3.618   3.018 -1.1962 -0.0641 -1.1891
   43DG      H4  970   0.114   3.540   3.035 -0.1860 -0.0711  0.8667
   43DG      H5  971  -0.036   3.450   3.005 -1.4536  1.0109  2.3018
   43DG      H6  972   0.359   3.987   2.748  0.2639 -0.6833 -0.5075
   43DG      H7  973   0.352   4.055   2.582  0.3340 -0.4559 -0.8325
   43DG      H8  974   0.229   4.090   2.703 -1.5536 -3.2855  2.2737
   43DG      O9  975   0.036   3.547   2.840  0.0145 -1.0142  0.2391
   43DG     O10  976   0.233   3.894   2.634  0.4168  0.3827 -0.0558
   43DG     C11  977  -0.085   3.544   2.755  0.8451 -0.5738  0.0572
   43DG     C12  978   0.127   3.922   2.550  0.3779 -0.0123  0.7112
   43DG     H13  979  -0.169   3.597   2.800  1.0140 -3.1462  3.9361
   43DG     H14  980  -0.129   3.445   2.757  2.0451 -1.1206  1.7814
   43DG     H15  981   0.146   3.975   2.457 -1.1499 -1.1352 -0.2888
   43DG     H16  982   0.051   3.976   2.607 -2.4064 -2.4531 -0.4184
   43DG     C17  983  -0.062   3.600   2.618 -0.7404  0.1753  0.1877
   43DG     C18  984   0.043   3.796   2.507  0.7199 -0.0917 -0.1408
   43DG     O19  985   0.025   3.721   2.634 -0.0760  0.4949 -0.0244
   43DG     H20  986  -0.153   3.624   2.563 -1.1023 -1.0022  0.2428
   43DG     H21  987  -0.003   3.529   2.560 -1.9565  0.4327 -1.4332
   43DG     H22  988  -0.050   3.849   2.482  0.8820 -0.0422 -0.6498
   43DG     H23  989   0.066   3.734   2.421  0.6166 -0.1298 -0.1415
   44DG      C1  990   2.285   1.027   3.972 -0.0942  0.0948 -0.3829
   44DG      C2  991   2.008   1.043   3.335  0.3226  0.1271 -0.0149
   44DG      H3  992   2.223   0.938   3.975 -0.4595  0.2787 -1.7754
   44DG      H4  993   2.227   1.113   4.005 -0.2607 -0.2248  0.1614
   44DG      H5  994   2.372   1.029   4.038 -0.3968  0.1215  0.0172
   44DG      H6  995   2.018   0.940   3.299 -1.1665 -0.1143  0.1999
   44DG      H7  996   1.917   1.039   3.395  0.2487 -1.9149 -0.1754
   44DG      H8  997   1.998   1.108   3.248  1.1663 -0.7575 -0.7949
   44DG      O9  998   2.333   1.060   3.838  0.3594 -0.0825  0.2808
   44DG     O10  999   2.126   1.081   3.417  0.6344  1.1427  0.9726
   44DG     C11 1000   2.412   0.959   3.778  0.0013  0.1039 -0.4619
   44DG     C12 1001   2.249   1.064   3.346  0.1939 -0.0480 -0.0405
   44DG     H13 1002   2.353   0.868   3.786  0.2241  0.0175  0.2381
   44DG     H14 1003   2.501   0.945   3.840 -1.1950 -2.6221  0.8124
   44DG     H15 1004   2.248   1.145   3.273 -0.6659  0.6247  0.6979
   44DG     H16 1005   2.246   0.976   3.282 -0.3264 -0.2489  0.2543
   44DG     C17 1006   2.458   0.994   3.630 -0.4863  0.0472 -0.1617
   44DG     C18 1007   2.372   1.068   3.423 -0.0857  0.2313 -0.2248
   44DG     O19 1008   2.342   1.000   3.545  0.6413  0.3327  0.2626
   44DG     H20 1009   2.537   0.930   3.591  0.3223  0.9033  0.0295
   44DG     H21 1010   2.496   1.096   3.628  0.9689 -0.4778 -0.4638
   44DG     H22 1011   2.446   1.016   3.363 -1.3053  0.0696 -1.6554
   44DG     H23 1012   2.407   1.168   3.448  1.9656 -0.6355  0.5886
   45DG      C1 1013   3.239   0.733   1.722  0.1360 -0.1776 -0.4132
   45DG      C2 1014   2.842   0.326   1.971  0.4360 -0.3174 -0.0261
   45DG      H3 1015   3.329   0.686   1.763  0.0991  1.5702  1.8908
   45DG      H4 1016   3.269   0.833   1.692 -0.3943 -0.1845 -0.9663
   45DG      H5 1017   3.203   0.687   1.630 -0.1295 -2.1019  0.5991
   45DG      H6 1018   2.891   0.269   2.050 -0.2297  0.5811  1.0695
   45DG      H7 1019   2.733   0.321   1.977  0.4759  0.3163  1.5186
   45DG      H8 1020   2.867   0.282   1.874 -3.1670 -0.7874 -0.8952
   45DG      O9 1021   3.134   0.752   1.820  0.0887 -0.2725 -0.1751
   45DG     O10 1022   2.881   0.465   1.982  0.4360 -0.0269  0.0747
   45DG     C11 1023   3.173   0.827   1.938  0.3989 -0.5644 -0.3552
   45DG     C12 1024   2.855   0.522   2.106  0.0270  0.6499 -0.2899
   45DG     H13 1025   3.202   0.928   1.909  1.1163 -0.4981  0.5797
   45DG     H14 1026   3.258   0.783   1.990  2.0632  0.0017 -2.4441
   45DG     H15 1027   2.911   0.474   2.187 -1.1837  1.4267  1.0590
   45DG     H16 1028   2.753   0.505   2.139 -0.0628  0.8224 -0.4797
   45DG     C17 1029   3.049   0.831   2.021  0.4996 -0.1816  0.1494
   45DG     C18 1030   2.885   0.671   2.088  0.3104  0.1219  0.2154
   45DG     O19 1031   3.013   0.697   2.043 -0.5150  0.6982  0.1349
   45DG     H20 1032   2.973   0.889   1.969  2.1700 -0.2773 -2.6368
   45DG     H21 1033   3.072   0.874   2.118  0.2910 -0.2691  0.2386
   45DG     H22 1034   2.808   0.715   2.025 -2.2040  0.1904  3.0957
   45DG     H23 1035   2.872   0.721   2.184 -1.1654 -0.0591  0.1350
   46DG      C1 1036   1.109   2.099   2.343 -0.1202  0.4940 -0.0976
   46DG      C2 1037   0.598   1.728   2.069 -0.5378  0.5125 -0.0192
   46DG      H3 1038   1.088   2.040   2.433 -1.7331 -0.8848 -1.3200
   46DG      H4 1039   1.161   2.190   2.370 -0.1999  0.2331  1.0037
   46DG      H5 1040   1.165   2.040   2.271 -0.0440  0.9743 -0.4285
   46DG      H6 1041   0.495   1.694   2.080 -1.3423  3.0051  0.8869
   46DG      H7 1042   0.624   1.742   1.964  3.1354 -2.4304  0.2986
   46DG      H8 1043   0.670   1.651   2.094  0.0843  1.7405  2.2344
   46DG      O9 1044   0.974   2.138   2.294  0.0258  0.2612  0.9414
   46DG     O10 1045   0.613   1.843   2.152  0.5097 -0.7923  0.6120
   46DG     C11 1046   0.879   2.197   2.380 -0.0913  0.2015  0.2051
   46DG     C12 1047   0.648   1.803   2.282  0.1723 -0.1038 -0.4663
   46DG     H13 1048   0.821   2.271   2.324 -1.7692  0.3267  1.9975
   46DG     H14 1049   0.915   2.244   2.472  0.2832 -0.2889  0.3151
   46DG     H15 1050   0.744   1.752   2.291  0.5982  0.6701 -0.5487
   46DG     H16 1051   0.579   1.726   2.316 -0.3155  0.9865  1.1255
   46DG     C17 1052   0.797   2.087   2.436  0.5128 -0.1612 -0.5117
   46DG     C18 1053   0.651   1.919   2.375  0.2581  0.2725 -0.1048
   46DG     O19 1054   0.747   2.008   2.332 -0.6388  0.2108  0.1292
   46DG     H20 1055   0.722   2.114   2.510 -1.7539 -2.3084 -1.8311
   46DG     H21 1056   0.862   2.018   2.489 -0.7663  0.1724  1.5817
   46DG     H22 1057   0.554   1.962   2.348 -1.2460 -3.0718 -0.5344
   46DG     H23 1058   0.666   1.882   2.476 -1.1830 -2.0887 -0.6760
   47DG      C1 1059   0.063   2.866   0.657  0.1348 -0.2262 -0.0219
   47DG      C2 1060  -0.340   2.600   1.144  0.4271  0.4768 -0.1939
   47DG      H3 1061  -0.014   2.897   0.586 -0.5777 -0.7651  0.4905
   47DG      H4 1062   0.159   2.866   0.606  0.9700  1.9138  1.4091
   47DG      H5 1063   0.077   2.939   0.737 -0.3238  0.6552 -0.7421
   47DG      H6 1064  -0.347   2.521   1.218  1.6606  1.5711  1.1484
   47DG      H7 1065  -0.319   2.694   1.196 -2.6761  1.4250 -0.4570
   47DG      H8 1066  -0.435   2.608   1.092  0.5835 -0.5106 -0.6563
   47DG      O9 1067   0.040   2.741   0.732  0.5815 -0.1938 -0.2472
   47DG     O10 1068  -0.236   2.563   1.042  0.0075 -0.2988  0.2569
   47DG     C11 1069   0.022   2.633   0.639 -0.1018 -0.3574  0.2121
   47DG     C12 1070  -0.272   2.458   0.955 -0.3857 -0.3170 -0.3372
   47DG     H13 1071   0.115   2.636   0.582  0.0819  1.2557  0.5528
   47DG     H14 1072  -0.056   2.648   0.565  1.4909 -0.7927 -1.6690
   47DG     H15 1073  -0.341   2.485   0.875 -0.6438 -1.6299 -0.5685
   47DG     H16 1074  -0.322   2.380   1.013  0.4027 -0.5593  0.0348
   47DG     C17 1075   0.011   2.496   0.716  0.8939  0.2464 -0.6188
   47DG     C18 1076  -0.152   2.409   0.879 -0.2543 -0.4447  0.1755
   47DG     O19 1077  -0.105   2.521   0.808 -0.5707 -0.0419  0.5890
   47DG     H20 1078   0.098   2.485   0.782 -1.3367  0.6616  2.6250
   47DG     H21 1079  -0.004   2.412   0.649  2.4675  0.1957 -0.9525
   47DG     H22 1080  -0.071   2.367   0.939  0.5398  0.5182 -0.2014
   47DG     H23 1081  -0.187   2.337   0.804 -0.1715 -0.0414 -0.2586
   48DG      C1 1082   0.957   1.677   4.149  0.4547  0.2338 -0.3942
   48DG      C2 1083   0.390   1.349   3.695  0.5489 -0.1012  0.0823
   48DG      H3 1084   1.066   1.687   4.157  0.3968  1.7745 -1.1782
   48DG      H4 1085   0.912   1.719   4.239 -0.2530 -0.1940 -0.5446
   48DG      H5 1086   0.931   1.747   4.069  0.4791  0.8697  0.1400
   48DG      H6 1087   0.400   1.273   3.617  1.0885 -0.1717  0.2135
   48DG      H7 1088   0.341   1.301   3.780  2.7033  0.2958  1.6577
   48DG      H8 1089   0.322   1.422   3.653 -0.5996 -0.2852  1.5223
   48DG      O9 1090   0.899   1.544   4.131  0.1533 -0.0318  0.2570
   48DG     O10 1091   0.519   1.403   3.726  0.3473  0.0516 -0.4882
   48DG     C11 1092   0.931   1.474   4.009  0.1744 -0.6409  0.0323
   48DG     C12 1093   0.505   1.509   3.817  0.0788 -0.3325 -0.3563
   48DG     H13 1094   0.915   1.367   4.016  0.3987 -1.0120 -3.3708
   48DG     H14 1095   1.035   1.488   3.978  0.5543  0.3188  1.6209
   48DG     H15 1096   0.465   1.473   3.912  1.3509  1.1384  0.7882
   48DG     H16 1097   0.431   1.582   3.787 -1.5245 -1.5391  0.5268
   48DG     C17 1098   0.857   1.539   3.887 -1.1059  0.1243 -0.4217
   48DG     C18 1099   0.638   1.582   3.827  0.4098 -0.1807  0.6184
   48DG     O19 1100   0.722   1.509   3.907  0.1247  0.1858 -0.0452
   48DG     H20 1101   0.894   1.506   3.790  0.7784  0.9716 -0.0375
   48DG     H21 1102   0.890   1.643   3.888 -0.6340 -0.0000  1.2950
   48DG     H22 1103   0.680   1.627   3.737 -1.0294  0.1272  0.0824
   48DG     H23 1104   0.618   1.671   3.887 -2.8181  1.3961 -2.4419
   49DG      C1 1105   1.098   5.146   3.405  0.0688 -0.2951 -0.4012
   49DG      C2 1106   0.324   5.064   3.610  0.0775 -0.3978  0.2172
   49DG      H3 1107   1.169   5.074   3.366  1.1152 -0.5603  1.8006
   49DG      H4 1108   1.163   5.184   3.485  2.3407 -3.6197 -0.4864
   49DG      H5 1109   1.086   5.228   3.335 -0.1073  0.2317  0.2290
   49DG      H6 1110   0.290   5.167   3.624 -0.2625 -0.6417  1.2812
   49DG      H7 1111   0.244   4.991   3.619  0.0483 -0.3332  0.4939
   49DG      H8 1112   0.391   5.023   3.686 -0.1124 -1.3154 -0.0969
   49DG      O9 1113   0.982   5.081   3.452  0.0430  0.2900 -0.2055
   49DG     O10 1114   0.391   5.058   3.482 -0.5140 -0.1176  0.3646
   49DG     C11 1115   0.922   5.019   3.340  0.2835  0.2647  0.0540
   49DG     C12 1116   0.519   5.110   3.481 -0.3824 -0.5867  0.1234
   49DG     H13 1117   0.874   4.927   3.374  1.0921 -0.6679 -1.2450
   49DG     H14 1118   0.997   4.973   3.276 -0.1148  1.7583 -1.5539
   49DG     H15 1119   0.575   5.032   3.533 -0.3219 -0.6465 -0.0306
   49DG     H16 1120   0.534   5.192   3.552  1.4003 -0.3442 -0.4832
   49DG     C17 1121   0.818   5.111   3.282  1.4897 -0.0007 -0.2206
   49DG     C18 1122   0.581   5.140   3.343 -0.2791 -0.4756  0.1860
   49DG     O19 1123   0.726   5.163   3.374  0.0410 -0.4511  0.2041
   49DG     H20 1124   0.772   5.064   3.195 -0.4892 -0.0729  0.7938
   49DG     H21 1125   0.877   5.196   3.249  0.9629  0.7317  0.6641
   49DG     H22 1126   0.555   5.053   3.283  1.5496 -1.1012  0.2494
   49DG     H23 1127   0.546   5.234   3.299  3.1731  1.3590  0.9493
   50DG      C1 1128   3.642   3.003   1.390 -0.0542  0.2718 -0.5504
   50DG      C2 1129   4.288   2.915   0.964 -0.4575 -0.4300 -0.6569
   50DG      H3 1130   3.654   2.895   1.395 -0.1359  0.2815 -0.1428
   50DG      H4 1131   3.538   3.032   1.373 -0.8827 -0.6791  2.3361
   50DG      H5 1132   3.676   3.052   1.481 -0.2508  1.9383 -1.3296
   50DG      H6 1133   4.297   2.811   0.931 -0.3154 -0.9214  0.8794
   50DG      H7 1134   4.343   2.971   0.888  0.0924 -0.5277 -0.3323
   50DG      H8 1135   4.333   2.922   1.063 -1.6044  0.1681 -0.1654
   50DG      O9 1136   3.724   3.057   1.286  0.2752 -0.1571 -0.1611
   50DG     O10 1137   4.151   2.957   0.960  0.1135 -0.1509  0.3620
   50DG     C11 1138   3.684   3.006   1.161  0.0301 -0.1959  0.1192
   50DG     C12 1139   4.124   3.086   1.014  0.3814 -0.0165 -0.2183
   50DG     H13 1140   3.578   3.029   1.153 -0.2560 -1.4567  0.0595
   50DG     H14 1141   3.688   2.898   1.169  1.5127 -0.2751 -1.3053
   50DG     H15 1142   4.189   3.149   0.954 -0.8846  0.9355 -0.6465
   50DG     H16 1143   4.156   3.082   1.118  1.9804 -1.1403 -0.7082
   50DG     C17 1144   3.761   3.062   1.041 -0.2445  0.0979  0.7827
   50DG     C18 1145   3.977   3.122   0.990  0.3753  0.2475 -0.0488
   50DG     O19 1146   3.897   3.031   1.059  0.0858  0.1536 -0.5438
   50DG     H20 1147   3.734   3.167   1.035  0.2387  0.2101  0.5177
   50DG     H21 1148   3.731   3.020   0.945  0.1146  1.3034  0.1246
   50DG     H22 1149   3.969   3.221   1.035  1.6234  0.3576 -0.0408
   50DG     H23 1150   3.945   3.127   0.886 -1.3611 -0.2344  0.4197
   51DG      C1 1151   2.348   3.141   1.052 -0.3086 -0.1072 -0.3717
   51DG      C2 1152   3.032   3.210   1.120 -0.0076 -0.1343 -0.0108
   51DG      H3 1153   2.303   3.063   1.114  1.6164 -1.3571 -0.4799
   51DG      H4 1154   2.269   3.166   0.980 -1.0613  1.1417  0.8338
   51DG      H5 1155   2.364   3.229   1.113  1.0094 -1.1594  0.8513
   51DG      H6 1156   3.051   3.164   1.217 -0.4818  2.4083  1.3672
   51DG      H7 1157   3.125   3.206   1.064 -0.1660 -1.4314 -0.2114
   51DG      H8 1158   3.000   3.313   1.138 -0.1235  0.3163 -2.4697
   51DG      O9 1159   2.471   3.088   0.996  0.3354  0.8754  0.3864
   51DG     O10 1160   2.930   3.150   1.041  0.4846  0.1271 -0.1296
   51DG     C11 1161   2.469   2.944   0.968  0.5878  0.1015  0.3934
   51DG     C12 1162   2.951   3.016   1.006  0.5163 -0.1694  0.4061
   51DG     H13 1163   2.386   2.901   0.911  0.7266 -0.9749  0.9709
   51DG     H14 1164   2.465   2.888   1.061  0.5464 -1.2574 -0.3863
   51DG     H15 1165   2.966   2.955   1.095 -3.1938  0.0108  1.3285
   51DG     H16 1166   3.048   3.014   0.955  0.6694  0.9106  0.6420
   51DG     C17 1167   2.607   2.910   0.900 -0.0859 -0.2636 -0.4450
   51DG     C18 1168   2.838   2.955   0.921 -0.4430 -0.0021  0.6277
   51DG     O19 1169   2.707   2.984   0.966  0.2353 -0.0637  0.1931
   51DG     H20 1170   2.608   2.920   0.792 -0.8854 -0.5370 -0.4839
   51DG     H21 1171   2.636   2.809   0.928  1.2250  0.9018  2.9524
   51DG     H22 1172   2.848   2.998   0.821  2.3335 -0.0130  0.8168
   51DG     H23 1173   2.862   2.848   0.920  1.8340  0.4536 -0.6824
   52DG      C1 1174   4.808   4.285   4.224  0.0772 -0.6953 -0.3971
   52DG      C2 1175   5.456   4.411   3.936 -0.6262  0.2412  0.3978
   52DG      H3 1176   4.737   4.271   4.142 -1.1502  0.9003  0.3595
   52DG      H4 1177   4.827   4.389   4.247  1.3822 -0.8346 -0.7002
   52DG      H5 1178   4.760   4.244   4.313 -0.8830 -0.3177 -0.7340
   52DG      H6 1179   5.395   4.438   3.850 -0.2086  0.1712  0.0778
   52DG      H7 1180   5.471   4.506   3.987  0.7145  0.7107 -0.8097
   52DG      H8 1181   5.555   4.374   3.909 -0.4506  0.8053  0.2679
   52DG      O9 1182   4.937   4.230   4.219  0.4585 -0.0706 -0.0607
   52DG     O10 1183   5.389   4.318   4.021  0.0922  0.3857 -0.0968
   52DG     C11 1184   4.941   4.093   4.186 -0.2803 -0.1625 -0.0022
   52DG     C12 1185   5.357   4.192   3.970 -0.2903 -0.0322  0.1654
   52DG     H13 1186   4.905   4.070   4.086 -1.2525  1.4033 -0.0548
   52DG     H14 1187   4.890   4.027   4.255 -0.4814  0.6354  0.6326
   52DG     H15 1188   5.438   4.131   3.930 -0.1960 -0.8302  1.5185
   52DG     H16 1189   5.291   4.204   3.883  0.9106  1.5477 -0.5791
   52DG     C17 1190   5.095   4.062   4.192  0.1076  0.0796 -0.4888
   52DG     C18 1191   5.298   4.098   4.078  0.2363  0.4506  0.2785
   52DG     O19 1192   5.161   4.136   4.091 -0.0756  0.0978  0.2196
   52DG     H20 1193   5.105   3.955   4.177 -1.4255 -0.4696  1.8459
   52DG     H21 1194   5.147   4.081   4.286  0.4513 -1.5419 -0.3248
   52DG     H22 1195   5.300   3.994   4.045  2.4928  0.8685 -1.1168
   52DG     H23 1196   5.351   4.096   4.174  0.4810  0.4924  0.1453
   53DG      C1 1197   4.533   0.801   3.708  0.6094  0.3562 -0.8186
   53DG      C2 1198   4.649   1.182   3.210  0.1656  0.2406  0.4901
   53DG      H3 1199   4.565   0.897   3.750 -0.4212  0.4081 -0.1238
   53DG      H4 1200   4.613   0.731   3.685 -0.2099 -0.7342 -0.3998
   53DG      H5 1201   4.456   0.764   3.776  2.1828 -1.6142 -0.0109
   53DG      H6 1202   4.718   1.133   3.142  1.2504  1.6678  0.5040
   53DG      H7 1203   4.625   1.282   3.172 -4.6934 -1.0796 -0.6447
   53DG      H8 1204   4.717   1.198   3.294 -0.5402  0.8591  0.9586
   53DG      O9 1205   4.477   0.844   3.590  0.7852  0.1182 -0.0951
   53DG     O10 1206   4.541   1.106   3.261 -0.0883  0.2450  0.0786
   53DG     C11 1207   4.399   0.751   3.520  0.3705  0.1269 -0.3406
   53DG     C12 1208   4.453   1.054   3.159  0.2627 -0.0432  0.1567
   53DG     H13 1209   4.336   0.695   3.589  1.4501 -0.3503  0.2929
   53DG     H14 1210   4.457   0.667   3.481 -0.8219 -1.1101  0.4765
   53DG     H15 1211   4.518   0.989   3.100  0.4780  0.6686 -0.4057
   53DG     H16 1212   4.410   1.140   3.107  0.1354  0.2658  0.7717
   53DG     C17 1213   4.315   0.830   3.407 -0.3779 -0.0692 -0.2010
   53DG     C18 1214   4.346   0.978   3.232 -0.4305 -0.2406 -0.9691
   53DG     O19 1215   4.406   0.909   3.339 -0.3375 -0.0105  0.2807
   53DG     H20 1216   4.245   0.898   3.455 -0.4118  1.4356 -2.2431
   53DG     H21 1217   4.256   0.762   3.345  1.0064 -0.3994 -1.2102
   53DG     H22 1218   4.274   1.050   3.271 -1.6018 -1.5813 -0.5345
   53DG     H23 1219   4.291   0.913   3.164 -3.7392  2.1388 -0.7824
   54DG      C1 1220   5.471   2.484   4.562 -0.3469  0.2920  0.5375
   54DG      C2 1221   5.761   2.822   5.174 -0.2131  0.2837  0.1363
   54DG      H3 1222   5.375   2.511   4.606 -1.7440 -0.7290 -1.6716
   54DG      H4 1223   5.443   2.416   4.481 -0.9119 -0.5477  1.4174
   54DG      H5 1224   5.501   2.580   4.520 -0.8380  0.4820  0.6215
   54DG      H6 1225   5.832   2.743   5.203 -0.6337 -0.4751 -0.8300
   54DG      H7 1226   5.808   2.918   5.155 -0.2026  0.1590 -0.5011
   54DG      H8 1227   5.704   2.817   5.266  1.6216 -0.4199  1.2994
   54DG      O9 1228   5.561   2.415   4.652  0.2979 -0.7733  0.7149
   54DG     O10 1229   5.679   2.783   5.056 -0.3382 -0.3712  0.0297
   54DG     C11 1230   5.609   2.514   4.749 -0.2778 -0.7006 -0.3526
   54DG     C12 1231   5.753   2.751   4.941  0.2551 -0.2132  0.0644
   54DG     H13 1232   5.530   2.548   4.816  0.8478  0.9087  0.2116
   54DG     H14 1233   5.659   2.601   4.706 -0.8006  0.2355  0.8726
   54DG     H15 1234   5.822   2.834   4.927 -0.4371  0.5112  0.8649
   54DG     H16 1235   5.683   2.764   4.859 -2.5220 -0.9387  2.1763
   54DG     C17 1236   5.707   2.440   4.835 -0.6890 -0.2331  0.4588
   54DG     C18 1237   5.836   2.619   4.940 -0.4481  0.2253 -0.2656
   54DG     O19 1238   5.746   2.511   4.953  0.0433 -0.2829 -0.0257
   54DG     H20 1239   5.795   2.419   4.774  0.0229  0.9621  1.0433
   54DG     H21 1240   5.663   2.348   4.875  1.0212 -1.3398 -0.0963
   54DG     H22 1241   5.877   2.619   4.840  1.9849  2.1131  0.6426
   54DG     H23 1242   5.909   2.598   5.018 -1.3168 -0.4856  0.3851
   55DG      C1 1243   3.811   3.602   2.553  0.6104 -0.0168 -0.3852
   55DG      C2 1244   3.842   3.509   3.170  0.3377 -0.2154 -0.0068
   55DG      H3 1245   3.826   3.690   2.491  0.4028  0.8389  0.7337
   55DG      H4 1246   3.742   3.532   2.506  0.5817 -0.7892  0.7579
   55DG      H5 1247   3.904   3.545   2.552  0.6700  0.0841 -0.5844
   55DG      H6 1248   3.938   3.463   3.147  1.1062  0.8829  0.9475
   55DG      H7 1249   3.846   3.535   3.276 -3.8971  0.0656  0.2771
   55DG      H8 1250   3.766   3.432   3.155  0.7557 -0.6227 -0.0775
   55DG      O9 1251   3.773   3.636   2.688  0.0477 -0.7706  0.5825
   55DG     O10 1252   3.819   3.625   3.095  0.2567 -0.6447  0.4349
   55DG     C11 1253   3.646   3.688   2.705  0.4531 -0.1154 -0.2563
   55DG     C12 1254   3.708   3.707   3.132  0.7180  0.7330  0.4224
   55DG     H13 1255   3.574   3.620   2.659  1.0658 -0.6279 -0.4579
   55DG     H14 1256   3.617   3.779   2.652  1.5901  0.2984 -0.1960
   55DG     H15 1257   3.712   3.747   3.233  0.9137  2.4144 -0.2185
   55DG     H16 1258   3.616   3.651   3.141  0.5286  1.0057  0.1929
   55DG     C17 1259   3.612   3.710   2.853  1.4819 -0.3211 -0.1959
   55DG     C18 1260   3.705   3.827   3.032  0.2877  0.4549 -0.5755
   55DG     O19 1261   3.718   3.785   2.897  0.4919 -0.3107 -0.5495
   55DG     H20 1262   3.607   3.613   2.902 -0.9507 -0.1742 -0.0453
   55DG     H21 1263   3.517   3.761   2.867 -0.2175 -3.0357 -1.0313
   55DG     H22 1264   3.610   3.877   3.047  0.9246  1.0021  2.2974
   55DG     H23 1265   3.787   3.892   3.064 -0.0263  0.8167 -0.5075
   56DG      C1 1266   0.747   1.372   1.227 -0.3121 -0.2148  0.2272
   56DG      C2 1267   0.328   1.451   1.858 -0.6049  0.3307 -0.5725
   56DG      H3 1268   0.675   1.441   1.182  1.6245  2.1600  0.5497
   56DG      H4 1269   0.753   1.279   1.170 -0.2030  0.3530 -0.7226
   56DG      H5 1270   0.848   1.413   1.215  0.4659 -2.0909 -0.0355
   56DG      H6 1271   0.379   1.544   1.834  0.5010 -0.3231 -0.8555
   56DG      H7 1272   0.222   1.470   1.848 -0.0935  2.6758 -2.2280
   56DG      H8 1273   0.357   1.424   1.959  2.1264  0.0506 -1.3412
   56DG      O9 1274   0.719   1.338   1.357  0.4443 -0.4129  0.2901
   56DG     O10 1275   0.387   1.358   1.761 -0.1516 -0.1202 -0.5571
   56DG     C11 1276   0.586   1.280   1.362 -0.1683 -0.0933  0.5227
   56DG     C12 1277   0.318   1.233   1.758  0.4726  0.0432  0.6403
   56DG     H13 1278   0.584   1.184   1.309  0.7834  0.7896 -1.2151
   56DG     H14 1279   0.506   1.333   1.311  1.0077  1.9452  0.7006
   56DG     H15 1280   0.222   1.253   1.710  0.9200  0.7480  0.0181
   56DG     H16 1281   0.307   1.178   1.852 -0.6178 -0.8440  0.0130
   56DG     C17 1282   0.549   1.274   1.516 -0.1180  0.1134 -0.6261
   56DG     C18 1283   0.406   1.146   1.673 -0.0970  0.1165 -0.8419
   56DG     O19 1284   0.427   1.209   1.542  0.2702  0.3991 -0.2297
   56DG     H20 1285   0.557   1.373   1.560  0.4683 -0.2506  0.1045
   56DG     H21 1286   0.626   1.212   1.561  0.2549 -0.1902 -1.6447
   56DG     H22 1287   0.501   1.122   1.721  0.5275  1.1594 -1.4864
   56DG     H23 1288   0.355   1.053   1.648 -1.5088  0.5097  0.4264
   57DG      C1 1289   0.729   0.502   4.343 -0.0687 -0.8616  0.0760
   57DG      C2 1290   0.602   1.263   4.112  0.0905  0.3445  0.2406
   57DG      H3 1291   0.771   0.515   4.243  0.0857  2.0226  0.4396
   57DG      H4 1292   0.732   0.397   4.370 -0.8446 -0.9494 -0.1700
   57DG      H5 1293   0.803   0.554   4.404 -0.3182  0.9984 -1.1126
   57DG      H6 1294   0.578   1.279   4.007  0.7279  1.4927  0.2597
   57DG      H7 1295   0.620   1.359   4.161 -1.6825  0.4882  0.6849
   57DG      H8 1296   0.703   1.226   4.097  0.0226 -1.0026  2.6030
   57DG      O9 1297   0.603   0.554   4.326 -0.9121 -0.1558 -0.6719
   57DG     O10 1298   0.532   1.157   4.180  0.2909  0.1285 -0.5362
   57DG     C11 1299   0.608   0.702   4.316  0.0717  0.3930  0.6409
   57DG     C12 1300   0.428   1.093   4.117 -0.6816  0.5582 -0.4300
   57DG     H13 1301   0.673   0.728   4.233  2.9075  0.8376  2.8563
   57DG     H14 1302   0.638   0.759   4.403  3.9445 -0.6891  0.1890
   57DG     H15 1303   0.478   1.061   4.026  1.1914  1.7068  0.1473
   57DG     H16 1304   0.354   1.168   4.089 -0.9945 -0.9785 -4.4209
   57DG     C17 1305   0.478   0.755   4.257 -0.1503 -0.1611 -0.0385
   57DG     C18 1306   0.383   0.962   4.182 -0.3730  0.7046 -0.1075
   57DG     O19 1307   0.499   0.879   4.192  0.0945  0.0289 -0.3267
   57DG     H20 1308   0.405   0.763   4.338  0.3491 -1.0361  0.5113
   57DG     H21 1309   0.428   0.680   4.196 -1.3707  2.1872 -2.0973
   57DG     H22 1310   0.334   0.991   4.275  1.1394  1.9416  0.3398
   57DG     H23 1311   0.314   0.901   4.124  0.7233 -2.0049  1.2479
   58DG      C1 1312   3.014   2.508   3.537  0.1416  0.5147  0.2208
   58DG      C2 1313   3.639   2.192   3.641  0.0279  0.0034  0.4934
   58DG      H3 1314   2.962   2.442   3.607  2.0865 -1.2716  0.0797
   58DG      H4 1315   3.017   2.451   3.444 -0.3849  0.2434  0.3611
   58DG      H5 1316   2.961   2.600   3.512  2.6099  1.2184 -3.0375
   58DG      H6 1317   3.741   2.220   3.665  1.0415 -1.2901 -1.9556
   58DG      H7 1318   3.615   2.105   3.702 -2.3373 -0.0902 -0.4595
   58DG      H8 1319   3.643   2.163   3.536  0.0161  0.5831  0.3248
   58DG      O9 1320   3.134   2.528   3.608  0.2523  0.6695  0.0166
   58DG     O10 1321   3.539   2.293   3.654 -0.5359  0.4942 -0.7946
   58DG     C11 1322   3.234   2.615   3.547  0.6023  0.5050 -0.3202
   58DG     C12 1323   3.540   2.347   3.783  0.1116  0.3869  0.5311
   58DG     H13 1324   3.197   2.717   3.536  0.3776  0.7142  1.8271
   58DG     H14 1325   3.257   2.577   3.448 -2.2850  1.2323 -1.3589
   58DG     H15 1326   3.635   2.349   3.836  0.5087 -1.9691  0.0229
   58DG     H16 1327   3.463   2.302   3.846  0.8384 -2.0783 -0.2329
   58DG     C17 1328   3.360   2.638   3.634  0.0486  0.3957  0.4308
   58DG     C18 1329   3.500   2.499   3.764  0.0362  0.0795 -0.0085
   58DG     O19 1330   3.412   2.507   3.659  0.4177 -0.3417  0.0662
   58DG     H20 1331   3.335   2.683   3.731  0.9548 -0.6046  1.1417
   58DG     H21 1332   3.432   2.696   3.577 -0.5429 -0.7804 -1.6259
   58DG     H22 1333   3.455   2.515   3.862  1.5935 -0.9661  0.9151
   58DG     H23 1334   3.589   2.561   3.751 -0.3617  0.7561  0.4193
   59DG      C1 1335   1.330   4.924   0.982 -0.1834  0.0188  0.4065
   59DG      C2 1336   0.753   4.770   1.551 -0.3650  0.4767 -0.1451
   59DG      H3 1337   1.401   4.903   0.902 -0.3372  1.2292 -0.0660
   59DG      H4 1338   1.391   4.993   1.040  2.5131 -2.0591  0.2209
   59DG      H5 1339   1.244   4.971   0.934  0.0851 -2.2200 -2.5803
   59DG      H6 1340   0.666   4.770   1.486  1.9805  0.1407 -3.5627
   59DG      H7 1341   0.727   4.723   1.646 -2.8926 -1.0292 -1.4797
   59DG      H8 1342   0.793   4.867   1.580 -3.3229  0.9409  3.0271
   59DG      O9 1343   1.294   4.824   1.070  0.6362  0.2021  0.2032
   59DG     O10 1344   0.844   4.694   1.484 -0.4975  0.5084 -0.0202
   59DG     C11 1345   1.208   4.727   1.005  0.1686 -0.0823  0.2441
   59DG     C12 1346   0.892   4.750   1.366  0.0053  0.5047  0.0452
   59DG     H13 1347   1.265   4.669   0.932  0.4710 -0.0500  0.4521
   59DG     H14 1348   1.130   4.773   0.944  1.0359  0.9557 -0.1109
   59DG     H15 1349   0.928   4.849   1.395 -1.0341  0.6349  0.9394
   59DG     H16 1350   0.809   4.766   1.297  2.1183 -0.5319 -2.9936
   59DG     C17 1351   1.147   4.644   1.119  0.1503 -0.9069  0.3089
   59DG     C18 1352   1.006   4.656   1.311  0.3582 -0.6401  0.6169
   59DG     O19 1353   1.065   4.726   1.199 -0.1557  0.0120  0.6341
   59DG     H20 1354   1.232   4.595   1.167  1.4317 -1.0095 -1.9624
   59DG     H21 1355   1.089   4.560   1.084  0.4114 -1.5063  1.2643
   59DG     H22 1356   1.077   4.639   1.393 -0.1038  0.6206  1.3063
   59DG     H23 1357   0.959   4.562   1.283 -0.7525 -0.5213  1.9631
   60DG      C1 1358   0.769   4.830   4.969 -0.0206 -0.5971  0.5572
   60DG      C2 1359   0.339   5.230   4.323  0.2028  0.6629  0.0303
   60DG      H3 1360   0.705   4.742   4.974 -2.8318  1.2783 -0.1436
   60DG      H4 1361   0.830   4.838   5.059  1.4827  1.3701 -0.5566
   60DG      H5 1362   0.822   4.825   4.874 -3.0403  0.1531 -1.3248
   60DG      H6 1363   0.317   5.129   4.291 -1.7069  1.0229  0.0968
   60DG      H7 1364   0.248   5.290   4.316  0.1930  0.7122  0.5372
   60DG      H8 1365   0.401   5.274   4.245 -0.4342  1.6363  0.0532
   60DG      O9 1366   0.683   4.942   4.954 -0.3771 -0.1248 -0.2428
   60DG     O10 1367   0.393   5.237   4.455 -0.9573 -0.3233  0.6552
   60DG     C11 1368   0.622   4.953   4.816  0.0047  0.7016  0.3827
   60DG     C12 1369   0.306   5.187   4.552  0.8688  0.0846  0.2401
   60DG     H13 1370   0.556   4.866   4.817  1.3937 -0.4215 -0.8789
   60DG     H14 1371   0.700   4.943   4.741 -3.2860  0.1916 -3.2476
   60DG     H15 1372   0.263   5.093   4.516 -1.0664  1.0910 -0.2285
   60DG     H16 1373   0.214   5.246   4.554  0.5276 -0.3048 -1.5697
   60DG     C17 1374   0.550   5.083   4.795 -0.5220 -0.3277 -0.9098
   60DG     C18 1375   0.364   5.178   4.693 -0.4781  0.2081  0.6447
   60DG     O19 1376   0.464   5.073   4.679  0.4207 -0.6819 -0.3315
   60DG     H20 1377   0.626   5.161   4.785 -1.7130  1.3869  2.1697
   60DG     H21 1378   0.490   5.106   4.883 -0.9522 -0.1582 -1.2428
   60DG     H22 1379   0.410   5.276   4.707 -0.2434  0.1522  0.2971
   60DG     H23 1380   0.282   5.171   4.764 -1.5954 -1.7367 -0.7418
   61DG      C1 1381   4.224   0.875   0.887  0.1258 -0.1095 -0.2929
   61DG      C2 1382   3.741   1.039   1.353 -0.0865 -0.2779  0.8248
   61DG      H3 1383   4.330   0.881   0.865  0.2987 -2.2549 -0.3192
   61DG      H4 1384   4.170   0.965   0.858 -0.3268 -1.3302 -3.6514
   61DG      H5 1385   4.177   0.793   0.832  0.1636 -0.9308  0.8472
   61DG      H6 1386   3.678   1.029   1.265  1.0998 -2.4765  0.1639
   61DG      H7 1387   3.697   0.988   1.439 -0.2412 -0.2672  0.7522
   61DG      H8 1388   3.720   1.144   1.372 -1.1410 -0.1960 -0.6264
   61DG      O9 1389   4.203   0.841   1.022 -0.2314  0.1099  0.5383
   61DG     O10 1390   3.875   1.008   1.325  0.4004  0.0453 -0.1665
   61DG     C11 1391   4.301   0.898   1.108  0.8580  0.3188  0.7131
   61DG     C12 1392   3.964   1.055   1.426  0.6625 -0.5570 -0.2264
   61DG     H13 1393   4.310   1.005   1.086 -2.0315  0.7741  1.2942
   61DG     H14 1394   4.395   0.845   1.100 -0.0982 -1.4522  0.8003
   61DG     H15 1395   3.929   1.037   1.527  1.5578  0.9002  0.3719
   61DG     H16 1396   3.969   1.164   1.417  0.3709 -0.6564 -1.9316
   61DG     C17 1397   4.259   0.883   1.259  0.1351 -0.3299  0.1510
   61DG     C18 1398   4.102   0.984   1.410  0.5042 -0.2369 -0.0390
   61DG     O19 1399   4.138   0.958   1.273  0.2156  0.5611  0.5208
   61DG     H20 1400   4.331   0.928   1.327 -0.3501 -1.0708  1.1677
   61DG     H21 1401   4.253   0.779   1.291 -0.4054 -0.4060 -0.1803
   61DG     H22 1402   4.180   1.037   1.465 -1.7970  2.5639  0.8236
   61DG     H23 1403   4.088   0.889   1.461 -0.2480  0.0678  0.3395
   62DG      C1 1404   0.935   3.593   1.289 -0.7766 -0.2988  0.1262
   62DG      C2 1405   0.564   3.986   1.593 -0.1501 -0.2157 -0.3035
   62DG      H3 1406   0.997   3.566   1.375 -0.1623  0.5363 -0.0410
   62DG      H4 1407   0.996   3.552   1.208 -3.2647 -1.9924 -1.0268
   62DG      H5 1408   0.841   3.538   1.277 -1.4845  1.2779 -2.3594
   62DG      H6 1409   0.584   4.030   1.690 -0.1691  1.1802 -0.9135
   62DG      H7 1410   0.488   4.050   1.549 -0.3836 -1.7015 -2.2603
   62DG      H8 1411   0.522   3.885   1.595  0.1165 -0.3257  1.6941
   62DG      O9 1412   0.921   3.731   1.279  0.2385  0.1585  0.0640
   62DG     O10 1413   0.682   3.978   1.509  0.3354 -0.4335 -0.5498
   62DG     C11 1414   1.041   3.796   1.315  0.1297 -0.3967  0.8549
   62DG     C12 1415   0.756   4.101   1.516  0.3745 -0.2913 -0.1862
   62DG     H13 1416   1.131   3.764   1.264  0.3687 -1.0518  1.6625
   62DG     H14 1417   1.063   3.767   1.418 -3.3664  0.4074  1.9884
   62DG     H15 1418   0.806   4.120   1.611 -0.9041 -2.0967  0.9265
   62DG     H16 1419   0.684   4.180   1.494  0.3757  0.0739  1.0451
   62DG     C17 1420   1.018   3.947   1.302 -0.9470 -0.6073  0.3801
   62DG     C18 1421   0.867   4.100   1.403  0.7317 -0.9491  0.4457
   62DG     O19 1422   0.933   3.974   1.416  0.5282  0.0188  0.4045
   62DG     H20 1423   0.962   3.958   1.209 -1.5645  2.8434  1.0069
   62DG     H21 1424   1.100   4.019   1.307  0.8121 -2.5396  1.0076
   62DG     H22 1425   0.824   4.104   1.303 -1.8166 -0.7327  1.4871
   62DG     H23 1426   0.939   4.183   1.410 -2.5365  2.1031  0.7350
   63DG      C1 1427   4.684   2.750   1.697 -0.2400  0.6190 -0.0081
   63DG      C2 1428   4.925   3.290   2.147 -0.7083 -0.3618 -0.3513
   63DG      H3 1429   4.717   2.661   1.751 -0.7596  0.7858  0.5928
   63DG      H4 1430   4.769   2.800   1.651  1.4557 -1.6227  0.4908
   63DG      H5 1431   4.622   2.715   1.614  0.7473  0.4140 -0.6897
   63DG      H6 1432   4.906   3.395   2.126 -0.6779 -0.2140  0.3620
   63DG      H7 1433   4.939   3.292   2.255  2.0582  1.5706 -0.6316
   63DG      H8 1434   5.027   3.271   2.114  0.1513  2.5338  0.3195
   63DG      O9 1435   4.609   2.822   1.791 -0.2673  0.0092 -0.1663
   63DG     O10 1436   4.824   3.201   2.101 -0.5887  0.6915  0.1724
   63DG     C11 1437   4.572   2.953   1.736 -0.2752  0.0803 -0.3234
   63DG     C12 1438   4.686   3.252   2.114 -0.0326  0.0190  0.2863
   63DG     H13 1439   4.493   2.933   1.664 -1.6860  0.9660  0.9282
   63DG     H14 1440   4.656   2.996   1.682 -0.5274 -0.8674 -1.5208
   63DG     H15 1441   4.684   3.342   2.053  4.2746 -1.7167 -2.9372
   63DG     H16 1442   4.665   3.275   2.218  2.4892 -1.1035  1.1095
   63DG     C17 1443   4.529   3.040   1.850  0.2342  0.4864  0.0246
   63DG     C18 1444   4.574   3.162   2.049  0.0530 -0.0155 -0.2538
   63DG     O19 1445   4.626   3.103   1.931  0.1038 -0.1468  0.1259
   63DG     H20 1446   4.457   2.982   1.908 -0.6985  1.2073 -0.3880
   63DG     H21 1447   4.454   3.115   1.827 -0.8957 -0.1712  1.3586
   63DG     H22 1448   4.542   3.083   2.117  1.5801  0.8865  1.6169
   63DG     H23 1449   4.483   3.220   2.039  0.0327 -0.3432 -2.3485
   64DG      C1 1450   2.048   0.777   3.647  0.5295 -0.2459  0.0017
   64DG      C2 1451   2.027   1.344   3.542 -0.5578  0.1941 -0.0440
   64DG      H3 1452   1.964   0.837   3.612 -0.1210 -2.0294 -1.6871
   64DG      H4 1453   2.010   0.676   3.632 -0.8288  0.4529 -1.4845
   64DG      H5 1454   2.129   0.798   3.577 -0.5125  0.6062 -0.9693
   64DG      H6 1455   2.098   1.405   3.599 -0.4432  1.8853 -1.8651
   64DG      H7 1456   2.073   1.327   3.444  0.4702 -0.4199  0.5291
   64DG      H8 1457   1.955   1.424   3.524  1.2024  1.5896 -1.4024
   64DG      O9 1458   2.089   0.800   3.784  0.1506  0.2497  0.1979
   64DG     O10 1459   1.981   1.227   3.610 -0.2397  0.0582 -0.0080
   64DG     C11 1460   1.987   0.789   3.889  0.4060 -0.2317 -0.3973
   64DG     C12 1461   1.911   1.238   3.733 -0.0014 -0.5041 -0.2054
   64DG     H13 1462   2.025   0.810   3.989  1.7253  0.0741 -0.9397
   64DG     H14 1463   1.943   0.690   3.880 -0.1682  0.0269 -0.5121
   64DG     H15 1464   1.829   1.311   3.728  0.2995  0.0589  1.8851
   64DG     H16 1465   1.974   1.272   3.815  0.9108  0.0084 -1.1031
   64DG     C17 1466   1.879   0.898   3.858  0.4250  1.1249 -0.6412
   64DG     C18 1467   1.846   1.105   3.773  0.8232 -0.3628  0.6766
   64DG     O19 1468   1.944   1.019   3.814 -0.1164  0.2069  0.1581
   64DG     H20 1469   1.819   0.915   3.947  0.2483  2.1099 -0.9353
   64DG     H21 1470   1.818   0.860   3.776  3.9651 -0.6421 -2.7230
   64DG     H22 1471   1.772   1.125   3.851  0.9920  3.4086  0.0982
   64DG     H23 1472   1.803   1.065   3.682 -0.2289  3.0363 -0.4866
   65DG      C1 1473   4.944   0.734   2.246  0.1704 -0.5464  0.0433
   65DG      C2 1474   4.605   1.292   2.179  0.3197 -1.0065 -0.7000
   65DG      H3 1475   4.904   0.752   2.346  0.5867 -0.0808  0.1287
   65DG      H4 1476   5.052   0.740   2.260  0.1164 -0.5379  0.4775
   65DG      H5 1477   4.919   0.634   2.209 -0.5289 -0.0740 -0.7822
   65DG      H6 1478   4.625   1.327   2.280 -2.1398 -0.0366 -0.4744
   65DG      H7 1479   4.582   1.386   2.127  2.9389  1.1489  1.7248
   65DG      H8 1480   4.518   1.227   2.174 -2.8113  2.7890 -0.2524
   65DG      O9 1481   4.897   0.826   2.156  0.0887 -0.8032  0.0910
   65DG     O10 1482   4.729   1.236   2.146 -0.0156 -0.0630 -0.4689
   65DG     C11 1483   4.940   0.806   2.021  0.0025 -0.5511 -0.1032
   65DG     C12 1484   4.723   1.197   2.003  0.1085  0.7609  0.3236
   65DG     H13 1485   4.891   0.718   1.978  1.2259 -0.6218 -1.4234
   65DG     H14 1486   5.048   0.793   2.008  0.6370  2.8666  0.8625
   65DG     H15 1487   4.690   1.287   1.950  1.4331  1.4311  0.5946
   65DG     H16 1488   4.641   1.127   1.990 -0.5779  1.3971  1.1013
   65DG     C17 1489   4.888   0.921   1.937 -0.1790 -0.5531 -0.8319
   65DG     C18 1490   4.868   1.162   1.950 -0.2697 -0.7298  0.4420
   65DG     O19 1491   4.925   1.043   2.010 -0.2651 -0.2299  0.5912
   65DG     H20 1492   4.779   0.918   1.933 -0.2595  0.1920  0.3068
   65DG     H21 1493   4.930   0.917   1.836  0.0124 -1.5395 -0.7204
   65DG     H22 1494   4.865   1.153   1.841  1.1882 -0.8676  0.4025
   65DG     H23 1495   4.936   1.244   1.971  0.6859 -0.6033 -2.6676
   66DG      C1 1496   2.127   3.970   2.080  0.1601 -0.0691  0.3767
   66DG      C2 1497   2.560   4.364   2.064 -0.1741  0.3972 -0.9952
   66DG      H3 1498   2.079   3.902   2.009  1.1539 -1.2072  0.7721
   66DG      H4 1499   2.211   4.007   2.021 -0.2864  0.0060 -0.2338
   66DG      H5 1500   2.051   4.045   2.101 -1.1122 -1.2104  0.0226
   66DG      H6 1501   2.525   4.382   1.963  0.1647 -0.7589 -1.3367
   66DG      H7 1502   2.514   4.423   2.144  2.4798 -0.1346  1.0500
   66DG      H8 1503   2.666   4.386   2.057 -0.1997  2.5062  2.5912
   66DG      O9 1504   2.164   3.911   2.205  0.1402 -0.8965  0.2789
   66DG     O10 1505   2.538   4.224   2.092  0.0121 -0.4575 -0.1555
   66DG     C11 1506   2.204   3.987   2.315 -0.1915 -0.3457  0.0293
   66DG     C12 1507   2.592   4.192   2.221 -0.4134 -0.2014  0.1702
   66DG     H13 1508   2.239   3.926   2.398 -0.5530 -1.5693 -0.6886
   66DG     H14 1509   2.119   4.044   2.353 -1.0549 -0.9468 -0.9532
   66DG     H15 1510   2.551   4.251   2.303 -0.4123 -0.7657  0.5883
   66DG     H16 1511   2.701   4.200   2.219 -0.2157 -2.1365  0.9735
   66DG     C17 1512   2.330   4.077   2.298 -0.3452 -0.2775 -0.0306
   66DG     C18 1513   2.562   4.049   2.258  0.4680  0.2802 -0.3070
   66DG     O19 1514   2.432   3.999   2.227  0.5555  0.1514  0.5359
   66DG     H20 1515   2.369   4.116   2.392 -2.2215  2.0072 -0.1038
   66DG     H21 1516   2.309   4.161   2.232  0.7082 -0.5559 -0.7481
   66DG     H22 1517   2.635   3.978   2.217  0.2297  0.0873 -0.3970
   66DG     H23 1518   2.583   4.040   2.364  0.3401 -0.0538 -0.3095
   67DG      C1 1519   1.400   4.350   2.058 -0.1740  0.0347 -0.2886
   67DG      C2 1520   1.165   4.675   2.623 -0.1757 -0.2077 -0.0551
   67DG      H3 1521   1.428   4.386   1.959 -2.8390  0.7975 -0.8429
   67DG      H4 1522   1.301   4.307   2.046  0.6209 -1.7167 -0.9983
   67DG      H5 1523   1.459   4.260   2.073  0.1090  0.0234 -1.3847
   67DG      H6 1524   1.089   4.597   2.620  1.4787 -1.9155 -0.0474
   67DG      H7 1525   1.217   4.668   2.719 -0.5097 -1.6022  0.0567
   67DG      H8 1526   1.119   4.773   2.617 -2.2102 -1.2040 -3.0958
   67DG      O9 1527   1.421   4.449   2.161 -0.3910 -0.4957 -0.0871
   67DG     O10 1528   1.253   4.667   2.508  0.1355 -0.3713 -0.1827
   67DG     C11 1529   1.514   4.543   2.115  0.3899  0.3017 -0.0444
   67DG     C12 1530   1.332   4.781   2.489  0.9025 -0.0451  0.2931
   67DG     H13 1531   1.470   4.597   2.031  1.2475 -0.3082 -0.9099
   67DG     H14 1532   1.613   4.502   2.093  1.2855  1.6248  1.3245
   67DG     H15 1533   1.355   4.828   2.585  1.2289 -0.2197  0.3022
   67DG     H16 1534   1.280   4.845   2.418 -0.5550 -0.5594  0.8598
   67DG     C17 1535   1.543   4.621   2.236 -0.0137 -0.1919 -0.4175
   67DG     C18 1536   1.458   4.750   2.418  0.1154  0.1977  0.2443
   67DG     O19 1537   1.426   4.655   2.313 -0.5879  0.7365 -0.3485
   67DG     H20 1538   1.601   4.710   2.210  0.6003 -0.8409 -1.3383
   67DG     H21 1539   1.620   4.567   2.290 -0.7166 -1.3827 -0.5760
   67DG     H22 1540   1.504   4.840   2.378 -0.4890 -0.0713 -1.1144
   67DG     H23 1541   1.528   4.699   2.484  0.5952  0.0386 -0.3772
   68DG      C1 1542   1.409   2.463   2.173 -0.0468 -0.1991 -0.1530
   68DG      C2 1543   1.026   2.642   1.676  0.6756  0.2561 -0.1946
   68DG      H3 1544   1.466   2.555   2.159 -0.3533 -0.1006 -0.8037
   68DG      H4 1545   1.487   2.402   2.219 -0.5159 -0.5585  0.1812
   68DG      H5 1546   1.335   2.486   2.250 -0.5146  0.6170 -0.8284
   68DG      H6 1547   1.101   2.680   1.745  1.4926 -4.7922  2.1971
   68DG      H7 1548   1.037   2.680   1.574 -0.8689 -0.4712 -0.6629
   68DG      H8 1549   0.925   2.667   1.709  1.6590  1.6265  2.0229
   68DG      O9 1550   1.360   2.421   2.044 -0.1583  0.3436 -0.3882
   68DG     O10 1551   1.039   2.498   1.687  0.1108  0.1654 -0.0339
   68DG     C11 1552   1.301   2.298   2.055 -0.3980 -0.0570 -0.7400
   68DG     C12 1553   1.158   2.440   1.634 -0.7546 -0.0519 -0.0852
   68DG     H13 1554   1.206   2.299   2.108  0.0096  0.2757 -0.0099
   68DG     H14 1555   1.373   2.230   2.101  0.3416 -0.2229 -2.0807
   68DG     H15 1556   1.245   2.499   1.664 -1.7461  1.3741  0.0304
   68DG     H16 1557   1.170   2.426   1.526  1.0965 -1.1894  0.2063
   68DG     C17 1558   1.275   2.239   1.913 -0.2479  0.4869  0.0244
   68DG     C18 1559   1.188   2.308   1.701 -0.3409  0.1642  0.2407
   68DG     O19 1560   1.201   2.336   1.842  0.3934  0.1715  0.5158
   68DG     H20 1561   1.216   2.148   1.924  0.9972 -0.3857 -0.2247
   68DG     H21 1562   1.371   2.208   1.870 -0.9339  0.5673 -1.6211
   68DG     H22 1563   1.112   2.237   1.670 -0.7706  1.3269 -1.5298
   68DG     H23 1564   1.286   2.280   1.662 -0.5611 -0.0829 -0.1319
   69DG      C1 1565   0.720   3.388   1.051  0.1034  0.2610 -0.1019
   69DG      C2 1566   1.065   3.634   0.546 -0.0323  0.0066  0.2744
   69DG      H3 1567   0.673   3.313   1.114  0.0231 -1.1425 -1.7294
   69DG      H4 1568   0.670   3.484   1.043 -2.7396 -1.1790 -0.9642
   69DG      H5 1569   0.814   3.410   1.101 -0.6044  1.8483  0.5734
   69DG      H6 1570   1.111   3.643   0.447 -0.3626 -1.3793 -0.0369
   69DG      H7 1571   1.042   3.738   0.566  1.8442  0.1154  2.2332
   69DG      H8 1572   1.138   3.600   0.619  1.9459  0.0844 -1.5480
   69DG      O9 1573   0.746   3.343   0.917 -0.1811  0.0777 -0.2850
   69DG     O10 1574   0.950   3.548   0.557  0.2118  0.5818  0.3940
   69DG     C11 1575   0.638   3.293   0.844  0.2516 -0.9210 -0.6088
   69DG     C12 1576   0.980   3.411   0.519  0.6909 -0.6223 -0.7170
   69DG     H13 1577   0.561   3.371   0.839  1.2112  0.0849 -0.1215
   69DG     H14 1578   0.583   3.212   0.890  2.8761 -1.5621  1.5899
   69DG     H15 1579   1.070   3.379   0.571  0.5315 -0.1841 -0.1642
   69DG     H16 1580   1.008   3.411   0.414 -1.6367 -1.9317 -1.3925
   69DG     C17 1581   0.694   3.260   0.707  0.2186  0.2135 -0.4424
   69DG     C18 1582   0.865   3.313   0.545 -0.4028  0.3142  0.1096
   69DG     O19 1583   0.793   3.354   0.664 -0.3848  0.0633  0.1733
   69DG     H20 1584   0.621   3.256   0.626 -1.3169  1.5085  0.8122
   69DG     H21 1585   0.741   3.162   0.716 -1.1359 -0.4424 -0.2692
   69DG     H22 1586   0.795   3.319   0.462 -0.0102 -1.7672 -0.4430
   69DG     H23 1587   0.902   3.210   0.549 -0.9656  0.0256 -1.4588
   70DG      C1 1588   4.887   3.776   1.927 -0.0682  0.4156 -0.1275
   70DG      C2 1589   5.219   4.119   2.428 -0.1043  0.0678  0.3755
   70DG      H3 1590   4.859   3.823   1.833  2.4982  1.6252 -0.3679
   70DG      H4 1591   4.812   3.803   2.001  1.3201  0.6480  1.2397
   70DG      H5 1592   4.876   3.668   1.916  2.1991  0.1476 -0.2382
   70DG      H6 1593   5.202   4.216   2.381 -0.6583 -0.2288 -0.0432
   70DG      H7 1594   5.125   4.095   2.476 -0.2449  1.2389  0.7142
   70DG      H8 1595   5.286   4.117   2.515  3.3642  0.2875 -2.0596
   70DG      O9 1596   5.015   3.809   1.977 -0.0464 -0.5502 -0.3304
   70DG     O10 1597   5.244   4.022   2.327  0.4093 -0.6209 -0.5883
   70DG     C11 1598   5.117   3.838   1.879  0.3370 -0.1646  0.0594
   70DG     C12 1599   5.349   4.058   2.235  0.3908  0.0843 -0.1117
   70DG     H13 1600   5.080   3.929   1.832  0.7219  0.6911  1.3490
   70DG     H14 1601   5.114   3.757   1.806 -0.8351 -0.6264  0.5921
   70DG     H15 1602   5.440   4.080   2.290 -0.5515 -0.2076  1.6393
   70DG     H16 1603   5.313   4.150   2.188 -0.7896  1.5949  3.3703
   70DG     C17 1604   5.258   3.848   1.946 -0.0267 -0.1752  0.6498
   70DG     C18 1605   5.362   3.939   2.144  0.3819  0.2986  0.4459
   70DG     O19 1606   5.247   3.934   2.058 -0.3724  0.3977  0.2151
   70DG     H20 1607   5.324   3.888   1.869  0.1470 -1.0076  0.3511
   70DG     H21 1608   5.303   3.755   1.981  0.4797  0.8568  2.9463
   70DG     H22 1609   5.437   3.956   2.068 -0.3866  1.3478 -0.0932
   70DG     H23 1610   5.388   3.852   2.204  0.8844  0.2466  0.1504
   71DG      C1 1611   1.263   3.115   4.473 -0.0081 -0.3220 -0.6208
   71DG      C2 1612   0.648   3.604   4.431  0.8271  0.7137  0.1753
   71DG      H3 1613   1.236   3.020   4.429  2.2438 -1.0646 -0.5594
   71DG      H4 1614   1.286   3.090   4.576  1.0522  1.4021 -0.3850
   71DG      H5 1615   1.350   3.146   4.414  0.3413  2.4722  1.1510
   71DG      H6 1616   0.707   3.692   4.406 -0.6529  2.2298  1.6920
   71DG      H7 1617   0.637   3.544   4.341  0.7968 -0.5996  1.0358
   71DG      H8 1618   0.548   3.628   4.469 -0.0122 -1.3410 -0.5823
   71DG      O9 1619   1.166   3.216   4.467 -0.8658  0.3236 -0.1182
   71DG     O10 1620   0.727   3.523   4.521  0.2317 -0.4179 -0.8403
   71DG     C11 1621   1.045   3.180   4.525  0.0373  1.0312  0.5510
   71DG     C12 1622   0.661   3.415   4.584 -0.4724  0.4190 -0.6333
   71DG     H13 1623   1.051   3.096   4.595  2.9440 -0.4099 -1.2032
   71DG     H14 1624   1.005   3.123   4.441  1.4008  2.0971 -0.8800
   71DG     H15 1625   0.628   3.338   4.515  0.3936 -1.0019  0.4553
   71DG     H16 1626   0.569   3.453   4.629 -1.2473 -0.9867 -0.9867
   71DG     C17 1627   0.946   3.293   4.567 -0.1249 -0.0804  0.1134
   71DG     C18 1628   0.753   3.356   4.694  0.2538  0.4091 -0.0421
   71DG     O19 1629   0.842   3.252   4.657  0.2027  0.7848 -0.1011
   71DG     H20 1630   0.900   3.332   4.476 -2.6441 -0.4140  1.1419
   71DG     H21 1631   1.003   3.373   4.614 -0.3910  0.2195 -0.0676
   71DG     H22 1632   0.814   3.425   4.753 -0.0528 -0.8704  1.8325
   71DG     H23 1633   0.686   3.316   4.769  0.9549 -0.6512  0.0329
   72DG      C1 1634   1.731   0.654   4.532  0.0135 -0.2209 -0.0184
   72DG      C2 1635   2.011   0.442   4.025  0.1579  0.7636  0.3479
   72DG      H3 1636   1.673   0.704   4.610 -0.9717  1.5830 -1.7922
   72DG      H4 1637   1.836   0.661   4.561  0.0853  1.5534 -0.5489
   72DG      H5 1638   1.702   0.549   4.532 -0.7977 -0.0043 -0.1864
   72DG      H6 1639   2.087   0.455   4.102  0.0568  1.4259  0.3425
   72DG      H7 1640   1.976   0.340   4.037  0.2052  0.4474 -1.7438
   72DG      H8 1641   2.061   0.466   3.931 -1.8577  0.6509 -0.8120
   72DG      O9 1642   1.706   0.691   4.399  0.2018 -0.0278  0.6756
   72DG     O10 1643   1.911   0.536   4.060  0.2275 -0.3625 -0.0863
   72DG     C11 1644   1.575   0.701   4.355  0.9934 -0.0679 -0.1152
   72DG     C12 1645   1.785   0.503   4.002  0.2899 -0.3375 -0.3573
   72DG     H13 1646   1.534   0.790   4.402 -0.1058 -1.2386  1.2550
   72DG     H14 1647   1.516   0.613   4.380 -0.6533  1.2557  0.8824
   72DG     H15 1648   1.744   0.411   4.043 -0.4597  0.7627  1.4757
   72DG     H16 1649   1.786   0.487   3.894 -0.1201  0.7138 -0.5318
   72DG     C17 1650   1.566   0.708   4.199 -0.7487  0.6958 -0.5156
   72DG     C18 1651   1.673   0.604   4.024  0.7751  0.1821  0.1916
   72DG     O19 1652   1.659   0.606   4.160 -0.3107 -0.1280 -0.2496
   72DG     H20 1653   1.609   0.802   4.166 -1.8413  1.1374 -0.7002
   72DG     H21 1654   1.468   0.694   4.154 -0.0221  0.1147 -1.9851
   72DG     H22 1655   1.693   0.706   3.990  0.1909  0.1942 -0.1197
   72DG     H23 1656   1.586   0.563   3.973  1.4873 -0.0847 -0.8498
   73DG      C1 1657   0.163   5.313   0.159 -1.0056  0.3092 -0.0968
   73DG      C2 1658   0.205   5.704  -0.360 -0.7661  0.5916 -1.0658
   73DG      H3 1659   0.072   5.317   0.218 -0.4997  0.4034  0.6913
   73DG      H4 1660   0.237   5.378   0.205  0.8535 -2.6867  1.4897
   73DG      H5 1661   0.201   5.210   0.162  3.4543  1.7385 -0.3584
   73DG      H6 1662   0.267   5.775  -0.304 -1.9765  0.9862 -0.1900
   73DG      H7 1663   0.275   5.657  -0.429  0.1040  2.2518 -1.3963
   73DG      H8 1664   0.133   5.757  -0.423 -0.3710 -0.8092 -2.7898
   73DG      O9 1665   0.112   5.340   0.026  0.5749  0.1783  0.4465
   73DG     O10 1666   0.136   5.606  -0.284  0.2237 -0.6945 -0.2626
   73DG     C11 1667   0.004   5.252  -0.010  0.1156 -0.3215 -0.1845
   73DG     C12 1668   0.059   5.529  -0.367  0.4934  0.2875  0.1726
   73DG     H13 1669  -0.081   5.258   0.059 -0.3612  0.4665 -0.8297
   73DG     H14 1670   0.028   5.146  -0.006 -1.9335 -0.8750 -1.1938
   73DG     H15 1671   0.115   5.441  -0.399 -1.1624 -0.6175 -0.3678
   73DG     H16 1672   0.027   5.578  -0.460  0.2490 -1.8416 -0.9262
   73DG     C17 1673  -0.033   5.292  -0.151 -0.2380  0.4063  0.3176
   73DG     C18 1674  -0.070   5.474  -0.294  0.0692  0.3122 -0.1985
   73DG     O19 1675  -0.046   5.436  -0.162  0.1788 -0.1135  0.2283
   73DG     H20 1676  -0.128   5.246  -0.174  1.2980 -2.0497 -1.6588
   73DG     H21 1677   0.048   5.248  -0.210  2.9393  2.5168  2.7262
   73DG     H22 1678  -0.139   5.556  -0.275 -1.7549 -1.0388 -0.6432
   73DG     H23 1679  -0.129   5.404  -0.354  1.2133  0.2538 -1.3101
   74DG      C1 1680   0.147   3.730   3.804 -0.1194 -0.3353  0.0048
   74DG      C2 1681   0.448   3.959   3.429 -0.6360  0.0635 -0.4257
   74DG      H3 1682   0.251   3.752   3.827  0.0244 -2.7657  2.0689
   74DG      H4 1683   0.157   3.687   3.705 -0.0163  0.1184 -0.1821
   74DG      H5 1684   0.118   3.654   3.877  2.5367 -0.8606  0.6016
   74DG      H6 1685   0.489   3.860   3.410  1.2118  0.2466  2.2121
   74DG      H7 1686   0.359   3.928   3.484  1.5355 -0.3108  3.1886
   74DG      H8 1687   0.412   4.010   3.340  0.5301 -0.2299 -1.0915
   74DG      O9 1688   0.062   3.849   3.814 -0.2597  0.1092 -0.1900
   74DG     O10 1689   0.537   4.030   3.506  0.3147 -0.0566 -0.4437
   74DG     C11 1690   0.070   3.944   3.712 -0.1970 -0.2785 -0.3496
   74DG     C12 1691   0.462   4.135   3.581 -0.0235  1.2643 -0.0671
   74DG     H13 1692  -0.023   3.997   3.696 -0.0759  0.0820  0.1324
   74DG     H14 1693   0.083   3.888   3.619  0.4539 -0.1969 -0.3127
   74DG     H15 1694   0.380   4.183   3.528 -0.8091  0.7822  0.6807
   74DG     H16 1695   0.533   4.215   3.596  0.5855  0.8298 -0.5484
   74DG     C17 1696   0.184   4.055   3.714  0.1215  0.3214 -0.2949
   74DG     C18 1697   0.418   4.086   3.721 -0.1050 -0.0540 -0.5055
   74DG     O19 1698   0.308   3.994   3.704  0.3411  0.2719  0.5064
   74DG     H20 1699   0.177   4.111   3.807 -0.8622 -1.4230  0.7293
   74DG     H21 1700   0.168   4.126   3.633  0.4884 -1.1290 -1.6812
   74DG     H22 1701   0.498   4.038   3.778 -1.2174  0.2456  1.4056
   74DG     H23 1702   0.394   4.175   3.778  1.1266 -0.3607  0.5411
   75DG      C1 1703   3.699   0.669   0.026 -0.3563 -0.2911 -0.1864
   75DG      C2 1704   3.724   1.219   0.437 -0.1950  0.5163  0.4410
   75DG      H3 1705   3.627   0.636   0.101 -1.2537  0.0007 -0.8921
   75DG      H4 1706   3.743   0.585  -0.028  0.2197 -0.4648  0.5399
   75DG      H5 1707   3.624   0.721  -0.034 -0.9930 -1.1933 -0.1810
   75DG      H6 1708   3.712   1.321   0.402  1.6751  0.7951  0.5564
   75DG      H7 1709   3.637   1.184   0.492 -0.7717 -0.0192 -0.7701
   75DG      H8 1710   3.805   1.217   0.509 -1.0251 -3.1767  1.5252
   75DG      O9 1711   3.780   0.774   0.076 -0.4552 -0.3146 -0.1930
   75DG     O10 1712   3.774   1.138   0.328  0.5598  0.2401  0.6689
   75DG     C11 1713   3.853   0.849  -0.025  0.0762  0.2295 -0.2991
   75DG     C12 1714   3.876   1.197   0.259 -0.0377  0.2181  0.9128
   75DG     H13 1715   3.795   0.930  -0.070 -1.3691  0.9540  2.6611
   75DG     H14 1716   3.889   0.781  -0.102  0.8746  0.0938  0.1858
   75DG     H15 1717   3.970   1.171   0.309  0.8641  1.9137  0.1834
   75DG     H16 1718   3.865   1.305   0.251 -1.4433  0.2167  2.2476
   75DG     C17 1719   3.968   0.917   0.045  0.3386  0.5181  0.7864
   75DG     C18 1720   3.900   1.131   0.130  0.1055  0.1481 -0.3518
   75DG     O19 1721   3.936   0.997   0.159 -0.1988 -0.3902 -0.5011
   75DG     H20 1722   4.029   0.980  -0.020 -3.1195  4.0911  0.6399
   75DG     H21 1723   4.042   0.839   0.065  0.3342  0.4682  0.6123
   75DG     H22 1724   3.806   1.131   0.075  0.9367 -0.6222 -1.8638
   75DG     H23 1725   3.972   1.187   0.070  0.3000 -1.2530 -1.5062
   76DG      C1 1726   0.208   2.378   1.902 -0.0124  0.2383 -0.1284
   76DG      C2 1727   0.341   2.089   2.535 -0.6449 -0.1275  0.6510
   76DG      H3 1728   0.218   2.466   1.966 -0.4437 -0.2855  0.6817
   76DG      H4 1729   0.133   2.392   1.824  0.5396  0.5716 -0.5975
   76DG      H5 1730   0.295   2.333   1.855 -0.9241  0.0197 -1.6682
   76DG      H6 1731   0.384   1.996   2.497 -0.0312 -0.3388  1.8047
   76DG      H7 1732   0.419   2.165   2.532 -1.9742  1.2318 -1.7123
   76DG      H8 1733   0.314   2.069   2.639 -0.1766  2.0416  1.2385
   76DG      O9 1734   0.156   2.282   1.990  0.3701  0.2951 -0.6912
   76DG     O10 1735   0.225   2.125   2.458 -0.4409  0.2846 -0.2970
   76DG     C11 1736   0.027   2.314   2.031 -0.3749 -0.3069 -0.1257
   76DG     C12 1737   0.168   2.015   2.384  0.4933  0.6072  0.1772
   76DG     H13 1738  -0.044   2.326   1.949 -0.8750 -2.7669 -0.1240
   76DG     H14 1739   0.025   2.405   2.091 -2.6266  0.2581 -0.9761
   76DG     H15 1740   0.156   1.931   2.453 -0.4919  1.8742  1.6124
   76DG     H16 1741   0.244   1.979   2.315  0.7361 -0.5027  1.0006
   76DG     C17 1742  -0.019   2.207   2.129 -0.5533  0.2296  0.1283
   76DG     C18 1743   0.044   2.068   2.312 -0.1906  0.4180 -0.1605
   76DG     O19 1744   0.079   2.177   2.229  0.2609 -0.4574 -0.3266
   76DG     H20 1745  -0.031   2.116   2.071 -1.5611  0.0042  0.6622
   76DG     H21 1746  -0.115   2.236   2.173 -0.8451 -0.9973  0.3385
   76DG     H22 1747   0.009   1.987   2.249  0.4867  0.8205 -1.0749
   76DG     H23 1748  -0.037   2.102   2.377  0.4565  1.5563  0.0697
   77DG      C1 1749   0.832   4.149   1.010  0.2658  0.1692 -0.1314
   77DG      C2 1750   0.156   4.587   0.880  0.0830 -0.2070  0.6358
   77DG      H3 1751   0.912   4.173   1.080  0.9725 -0.4912 -0.7032
   77DG      H4 1752   0.838   4.216   0.925 -0.3285  0.4933  0.0730
   77DG      H5 1753   0.843   4.043   0.988  0.5098 -0.0861  1.1386
   77DG      H6 1754   0.059   4.617   0.840  0.6280  0.2706 -0.3591
   77DG      H7 1755   0.124   4.538   0.972 -2.1897 -1.7654 -0.8686
   77DG      H8 1756   0.220   4.671   0.905  2.8668 -1.3962 -1.8077
   77DG      O9 1757   0.704   4.172   1.064  0.0491 -0.5453 -0.3170
   77DG     O10 1758   0.213   4.506   0.770 -0.1146 -0.3098  0.2372
   77DG     C11 1759   0.594   4.110   0.989 -0.1665  0.3659  0.2707
   77DG     C12 1760   0.333   4.438   0.797  0.0323 -0.2780 -0.5799
   77DG     H13 1761   0.594   4.005   1.017  1.5438  0.3329  0.2585
   77DG     H14 1762   0.631   4.105   0.886 -2.9267  1.0454 -0.8403
   77DG     H15 1763   0.407   4.516   0.813 -0.9268  0.5250  0.0590
   77DG     H16 1764   0.354   4.381   0.706 -2.3530 -0.6960 -0.9511
   77DG     C17 1765   0.463   4.176   1.017 -0.2814 -0.6773  0.8905
   77DG     C18 1766   0.332   4.350   0.925 -0.3000 -0.6234 -0.1482
   77DG     O19 1767   0.449   4.270   0.915  0.0303 -0.3537  0.4431
   77DG     H20 1768   0.465   4.225   1.114  2.3152 -0.8351  0.9921
   77DG     H21 1769   0.384   4.101   1.005 -1.5089  0.5787  0.9114
   77DG     H22 1770   0.324   4.414   1.012  0.5831  0.2616 -0.7077
   77DG     H23 1771   0.249   4.279   0.926  0.4059 -1.4905 -0.8569
   78DG      C1 1772   1.647   4.261   0.665  0.2976  0.3312  0.6033
   78DG      C2 1773   2.236   3.830   0.459 -0.0698  1.1586 -0.0523
   78DG      H3 1774   1.636   4.369   0.673  3.1648  0.9132 -1.7607
   78DG      H4 1775   1.621   4.222   0.764 -1.6269  2.7524  1.1501
   78DG      H5 1776   1.587   4.212   0.588  2.4403 -1.4515 -0.0478
   78DG      H6 1777   2.281   3.817   0.361 -1.0086 -1.2736 -0.2279
   78DG      H7 1778   2.305   3.826   0.543 -0.8354  1.0896  0.5905
   78DG      H8 1779   2.176   3.740   0.476  2.2842 -0.1749  1.6983
   78DG      O9 1780   1.779   4.243   0.616  0.4344 -0.2307 -0.2730
   78DG     O10 1781   2.163   3.954   0.457  0.0127 -0.0265  0.0664
   78DG     C11 1782   1.872   4.312   0.694  0.2003 -0.3124 -0.4075
   78DG     C12 1783   2.241   4.071   0.470  0.0692 -0.2115 -1.0813
   78DG     H13 1784   1.884   4.258   0.788  0.1879  1.8196  0.8818
   78DG     H14 1785   1.846   4.417   0.708 -1.5660 -0.5201 -1.6895
   78DG     H15 1786   2.308   4.094   0.388  1.3376  4.1864  0.8829
   78DG     H16 1787   2.311   4.064   0.554 -1.5724  0.1462  0.3833
   78DG     C17 1788   2.009   4.316   0.625  0.4052 -0.6565  0.1613
   78DG     C18 1789   2.159   4.202   0.486 -0.1335  0.6805 -0.2225
   78DG     O19 1790   2.065   4.190   0.595  0.1848 -0.0955  0.4445
   78DG     H20 1791   2.079   4.366   0.692  0.3593 -0.3624 -0.0103
   78DG     H21 1792   1.996   4.373   0.534  1.9750 -0.5132  0.0086
   78DG     H22 1793   2.224   4.288   0.503 -0.1690  1.1367 -2.1021
   78DG     H23 1794   2.098   4.222   0.398  0.4257  0.8926 -0.5726
   79DG      C1 1795   4.126   0.769   2.179  0.6783  0.6030  0.3244
   79DG      C2 1796   3.912   0.244   1.992 -0.2165 -0.1935  0.0259
   79DG      H3 1797   4.222   0.811   2.208  0.0538  1.2927  1.4506
   79DG      H4 1798   4.083   0.827   2.098  0.5213  2.2026  1.4972
   79DG      H5 1799   4.150   0.675   2.129 -1.4789  1.3255 -2.2940
   79DG      H6 1800   3.876   0.147   2.027 -0.3589 -0.0185  0.3730
   79DG      H7 1801   3.827   0.302   1.956 -0.7117 -1.0328 -0.1648
   79DG      H8 1802   3.983   0.231   1.911  0.3252 -0.8519  0.5878
   79DG      O9 1803   4.040   0.746   2.293  0.0431  0.1414 -0.7978
   79DG     O10 1804   3.973   0.312   2.103  0.3958 -0.1785 -0.1483
   79DG     C11 1805   4.118   0.687   2.402 -0.5795 -0.3416 -0.3347
   79DG     C12 1806   3.887   0.323   2.218 -0.1847 -0.3820  0.0007
   79DG     H13 1807   4.150   0.762   2.475 -0.5920 -0.4672 -0.2005
   79DG     H14 1808   4.216   0.653   2.369 -1.3685 -1.3950 -1.6721
   79DG     H15 1809   3.894   0.235   2.281 -2.4782 -0.2167  0.5603
   79DG     H16 1810   3.785   0.310   2.181 -0.2283  1.5166 -0.6667
   79DG     C17 1811   4.041   0.572   2.459  0.3442  0.3875 -0.2252
   79DG     C18 1812   3.911   0.454   2.296 -0.5431  0.1554 -0.3808
   79DG     O19 1813   4.027   0.459   2.369  0.4403 -0.2539  0.3160
   79DG     H20 1814   3.946   0.604   2.501  0.0278  0.2914 -0.8587
   79DG     H21 1815   4.093   0.533   2.547 -0.7341 -1.2398 -0.2708
   79DG     H22 1816   3.908   0.539   2.228  1.4239  0.5236 -0.0486
   79DG     H23 1817   3.826   0.460   2.364  0.1264 -1.5051  0.6789
   80DG      C1 1818   2.101   4.450   4.639  0.2838 -0.5560 -0.4655
   80DG      C2 1819   1.909   4.156   4.049 -0.2151  0.3036 -0.1534
   80DG      H3 1820   2.143   4.352   4.662  1.5985  0.1984  0.4796
   80DG      H4 1821   2.004   4.456   4.686 -0.2640 -0.6978 -1.5389
   80DG      H5 1822   2.175   4.513   4.689  1.1857 -1.7590 -0.2460
   80DG      H6 1823   1.819   4.166   4.111  0.3099 -1.3355  0.9395
   80DG      H7 1824   1.875   4.143   3.947 -0.2405 -1.5045  0.0565
   80DG      H8 1825   1.946   4.058   4.081 -0.2654  0.4688  0.4261
   80DG      O9 1826   2.104   4.472   4.495  0.3116  0.2327  0.0242
   80DG     O10 1827   1.992   4.262   4.080  0.2265  0.4371  0.5219
   80DG     C11 1828   2.238   4.505   4.449  0.8188 -0.1890  0.0015
   80DG     C12 1829   2.125   4.254   4.039  0.1924 -0.7548  0.4706
   80DG     H13 1830   2.309   4.432   4.489  2.7600  1.3220 -0.4878
   80DG     H14 1831   2.270   4.605   4.480 -2.3255  0.6461  0.9299
   80DG     H15 1832   2.127   4.254   3.930 -0.5775  1.1503  0.4301
   80DG     H16 1833   2.189   4.172   4.073  1.4833 -0.0829 -0.2507
   80DG     C17 1834   2.241   4.506   4.293  0.2351  0.1096 -0.3228
   80DG     C18 1835   2.188   4.386   4.090 -0.3019  0.1706 -0.6855
   80DG     O19 1836   2.177   4.393   4.234  0.4155 -0.2165  0.0698
   80DG     H20 1837   2.340   4.523   4.251  0.2327 -1.7877 -1.1974
   80DG     H21 1838   2.189   4.597   4.264 -0.1493 -0.6804 -2.2645
   80DG     H22 1839   2.297   4.383   4.086 -0.1343  1.0662  1.6550
   80DG     H23 1840   2.152   4.476   4.040  2.1196  1.4916 -0.1949
   81DG      C1 1841   3.064   1.368   4.541  0.1376  0.5698 -0.4899
   81DG      C2 1842   2.805   1.144   3.913  1.4341  0.2884 -0.3010
   81DG      H3 1843   3.074   1.366   4.650  2.5934 -0.9147 -0.6930
   81DG      H4 1844   2.984   1.437   4.512 -2.7384 -1.9208  0.9466
   81DG      H5 1845   3.155   1.403   4.493  1.2276 -0.5647  0.6575
   81DG      H6 1846   2.791   1.070   3.835 -1.2825 -0.0003  0.3602
   81DG      H7 1847   2.735   1.220   3.878 -0.2625 -1.4948 -0.9086
   81DG      H8 1848   2.908   1.180   3.913  1.8526 -0.7934  1.6341
   81DG      O9 1849   3.030   1.245   4.489 -0.1942  0.1355  0.3815
   81DG     O10 1850   2.759   1.119   4.043 -0.2311  0.1093  0.4118
   81DG     C11 1851   2.899   1.204   4.509 -0.1326  0.7092 -0.4761
   81DG     C12 1852   2.799   0.992   4.081 -0.1264 -0.0641 -0.5691
   81DG     H13 1853   2.826   1.273   4.467 -1.6129 -0.9109 -0.6819
   81DG     H14 1854   2.878   1.199   4.616  1.9195 -0.9560 -0.0788
   81DG     H15 1855   2.891   0.956   4.034 -0.7847 -1.5078 -0.7997
   81DG     H16 1856   2.722   0.924   4.044 -0.3723 -1.6313  2.5175
   81DG     C17 1857   2.859   1.069   4.442 -0.0046 -0.0947  0.0703
   81DG     C18 1858   2.817   0.971   4.233 -0.0380  0.3714  0.0156
   81DG     O19 1859   2.856   1.086   4.304 -0.5547 -0.0544 -0.0021
   81DG     H20 1860   2.762   1.035   4.478 -0.2369  2.1631  1.7714
   81DG     H21 1861   2.931   0.991   4.467  0.4664  0.3978  0.2839
   81DG     H22 1862   2.720   0.932   4.264  0.5124 -1.7843 -0.7807
   81DG     H23 1863   2.879   0.884   4.251 -1.0620 -0.0175  2.0304
   82DG      C1 1864   1.827   3.094   4.662 -0.9565 -0.3327  0.4921
   82DG      C2 1865   2.165   3.234   5.261 -0.3907 -0.1703  0.2537
   82DG      H3 1866   1.795   3.003   4.712  1.3740 -1.8565 -0.5974
   82DG      H4 1867   1.923   3.059   4.622  1.0133  2.3224  2.5038
   82DG      H5 1868   1.750   3.112   4.587 -1.7366 -2.0385  0.8483
   82DG      H6 1869   2.264   3.234   5.216 -1.1600  0.2217 -1.5354
   82DG      H7 1870   2.173   3.290   5.354 -2.0166  0.3555  0.1125
   82DG      H8 1871   2.120   3.136   5.278  0.1358 -0.8271 -1.8111
   82DG      O9 1872   1.841   3.203   4.751  0.1420  0.1767  0.3317
   82DG     O10 1873   2.079   3.304   5.171  0.0627  0.4263 -0.0072
   82DG     C11 1874   1.898   3.316   4.691  0.4426 -0.5709  0.1812
   82DG     C12 1875   2.144   3.412   5.099  0.7388  0.1210  0.4367
   82DG     H13 1876   1.834   3.366   4.618  1.4816  0.8146  0.1699
   82DG     H14 1877   1.981   3.287   4.627  1.0011 -1.7461  1.3782
   82DG     H15 1878   2.225   3.365   5.044  0.2975 -0.9918  0.7143
   82DG     H16 1879   2.179   3.479   5.177  0.9665 -0.5496  0.9132
   82DG     C17 1880   1.937   3.423   4.790 -0.2748 -0.3630  1.1721
   82DG     C18 1881   2.050   3.474   5.004  0.3887  0.4500  0.5335
   82DG     O19 1882   2.001   3.369   4.910 -0.8289  0.1238  0.1913
   82DG     H20 1883   1.849   3.474   4.829 -0.9452  0.1857 -0.9386
   82DG     H21 1884   2.003   3.494   4.740  0.1539 -0.5932  1.4112
   82DG     H22 1885   1.963   3.510   5.059 -1.6311 -1.6596 -1.0672
   82DG     H23 1886   2.091   3.554   4.943  2.1293  0.8076  2.0846
   83DG      C1 1887   2.971   2.458   1.132 -0.5078  0.1300  0.3047
   83DG      C2 1888   2.435   2.146   1.624 -0.0622 -0.2358  0.4851
   83DG      H3 1889   3.070   2.490   1.163 -1.3780  1.9440  1.3893
   83DG      H4 1890   2.954   2.499   1.032  1.3528 -2.3753 -1.1530
   83DG      H5 1891   2.962   2.350   1.120 -0.0298  0.0916  0.2690
   83DG      H6 1892   2.367   2.085   1.563  0.8161 -1.2383  0.4786
   83DG      H7 1893   2.505   2.087   1.684 -0.0052  0.1956  0.8457
   83DG      H8 1894   2.380   2.187   1.709 -0.2538 -0.2966  0.3917
   83DG      O9 1895   2.886   2.523   1.229 -0.2392 -0.0159 -0.5701
   83DG     O10 1896   2.496   2.252   1.551 -0.2924 -0.1678 -0.4145
   83DG     C11 1897   2.750   2.494   1.218  0.3865  0.0107 -0.9800
   83DG     C12 1898   2.555   2.350   1.642  0.2427  0.3933  0.2230
   83DG     H13 1899   2.727   2.391   1.190  0.9762 -0.7423  1.0839
   83DG     H14 1900   2.703   2.551   1.139 -3.0458 -0.0036  0.8447
   83DG     H15 1901   2.642   2.310   1.694 -1.1164 -0.9961  1.5255
   83DG     H16 1902   2.474   2.384   1.706 -0.5709 -0.5678 -0.2828
   83DG     C17 1903   2.675   2.540   1.343  0.0665  0.5944  0.4183
   83DG     C18 1904   2.585   2.465   1.552 -0.1974  0.6821 -1.0180
   83DG     O19 1905   2.671   2.437   1.443  0.1491 -0.2220  0.1076
   83DG     H20 1906   2.574   2.563   1.311  0.0397 -2.0696 -1.7332
   83DG     H21 1907   2.704   2.636   1.386  4.1536 -0.2634  0.0231
   83DG     H22 1908   2.486   2.503   1.526 -0.0211  2.1775  0.3474
   83DG     H23 1909   2.630   2.543   1.612 -1.0913 -0.7404  1.6740
   84DG      C1 1910   1.900   1.031   4.787  0.1551  0.2865 -0.4261
   84DG      C2 1911   2.117   0.552   5.206 -1.4069 -0.1170 -0.1748
   84DG      H3 1912   1.862   0.985   4.696 -2.0317 -1.4746  1.2476
   84DG      H4 1913   1.921   1.137   4.773 -0.1467  0.1167 -2.5271
   84DG      H5 1914   1.813   1.017   4.852  0.8200  0.9475  0.6476
   84DG      H6 1915   2.179   0.556   5.295  0.4881 -3.6615 -1.1099
   84DG      H7 1916   2.013   0.550   5.239 -0.8284  1.9977  2.0425
   84DG      H8 1917   2.135   0.449   5.172 -2.3463 -1.1431  2.2353
   84DG      O9 1918   2.020   0.961   4.835 -0.4148  0.1317 -0.5284
   84DG     O10 1919   2.151   0.659   5.115 -0.1572 -0.1589  0.1612
   84DG     C11 1920   2.115   0.959   4.736  0.1238 -0.8097  0.6288
   84DG     C12 1921   2.276   0.630   5.045  0.4444  0.5342  0.1833
   84DG     H13 1922   2.138   1.055   4.688  1.3103 -0.0934  2.5275
   84DG     H14 1923   2.084   0.896   4.652 -1.0925  1.2282 -0.5322
   84DG     H15 1924   2.249   0.539   4.991 -2.9421  0.9446  0.9829
   84DG     H16 1925   2.360   0.608   5.110 -0.6609  1.7205  2.1094
   84DG     C17 1926   2.249   0.898   4.788 -0.2365  0.0131  0.6499
   84DG     C18 1927   2.315   0.749   4.953 -0.3965 -0.4058 -0.1921
   84DG     O19 1928   2.202   0.799   4.874 -0.0263  0.8802 -0.3436
   84DG     H20 1929   2.307   0.979   4.831  2.1536 -0.2664 -1.7456
   84DG     H21 1930   2.305   0.844   4.712 -2.1151 -0.0096 -0.8069
   84DG     H22 1931   2.358   0.826   5.018 -0.8469  0.0915 -0.4731
   84DG     H23 1932   2.403   0.735   4.891 -0.3414  0.7515 -0.4107
   85DG      C1 1933   0.396   1.820   0.921 -1.0452  0.0176 -0.7714
   85DG      C2 1934   0.886   1.691   0.582  0.2439  0.2601  0.2757
   85DG      H3 1935   0.322   1.899   0.935 -0.0112  1.0497 -0.9544
   85DG      H4 1936   0.401   1.774   1.020 -1.2430 -0.2967 -0.9046
   85DG      H5 1937   0.367   1.742   0.852  0.3244  0.0985 -1.4643
   85DG      H6 1938   0.990   1.678   0.614  0.3375  0.3889  0.0259
   85DG      H7 1939   0.833   1.596   0.593 -2.0329  1.5755  1.1959
   85DG      H8 1940   0.889   1.716   0.476 -1.9131  0.0272  0.1250
   85DG      O9 1941   0.522   1.882   0.884  0.4865 -0.9742 -0.0619
   85DG     O10 1942   0.837   1.790   0.665 -0.3787 -0.5818 -0.1509
   85DG     C11 1943   0.556   1.990   0.961 -0.9527 -0.3668 -0.2084
   85DG     C12 1944   0.894   1.913   0.638 -0.2070  0.5290 -0.2719
   85DG     H13 1945   0.573   1.970   1.067 -0.6199  0.8709 -0.0008
   85DG     H14 1946   0.486   2.071   0.942 -2.0219 -1.2781 -0.1983
   85DG     H15 1947   0.862   1.945   0.539  2.3041  0.8630 -1.0473
   85DG     H16 1948   1.003   1.912   0.628 -0.1293  0.1660  0.5417
   85DG     C17 1949   0.699   2.036   0.927  0.2773 -0.1656 -0.2639
   85DG     C18 1950   0.861   2.021   0.744  0.3537  0.0768 -0.9086
   85DG     O19 1951   0.725   2.017   0.783 -0.6557  0.3692 -0.6997
   85DG     H20 1952   0.769   1.978   0.987  2.2118  2.1416 -0.1946
   85DG     H21 1953   0.719   2.138   0.957  1.9639 -0.4480 -0.3651
   85DG     H22 1954   0.929   2.014   0.829  0.6601  0.7328 -1.0883
   85DG     H23 1955   0.887   2.118   0.701  0.1361  0.7732  0.4468
   86DG      C1 1956   2.356   2.113   3.443 -0.3376 -0.4171 -0.1226
   86DG      C2 1957   2.004   1.969   4.047 -0.2925  0.0152  0.4574
   86DG      H3 1958   2.405   2.195   3.391  0.7409 -0.1660  1.2389
   86DG      H4 1959   2.269   2.100   3.378 -0.2564 -2.8328  0.1262
   86DG      H5 1960   2.418   2.024   3.451 -1.1753 -0.9542  0.5901
   86DG      H6 1961   1.898   1.995   4.042 -0.5020 -0.9209 -0.1448
   86DG      H7 1962   2.004   1.871   3.999 -2.8324 -0.0734  0.4936
   86DG      H8 1963   2.053   1.959   4.144  0.1239 -0.7683  0.1728
   86DG      O9 1964   2.318   2.138   3.575 -0.2561 -0.9160 -0.1247
   86DG     O10 1965   2.091   2.049   3.959  0.4648 -0.0335 -0.6459
   86DG     C11 1966   2.293   2.272   3.597  0.3765  0.1695 -0.8878
   86DG     C12 1967   2.115   2.174   4.019  0.4909 -0.5432 -0.7074
   86DG     H13 1968   2.185   2.285   3.586 -0.3494 -0.8481  3.2409
   86DG     H14 1969   2.347   2.339   3.530  1.8941 -0.4277 -0.2876
   86DG     H15 1970   2.154   2.145   4.117  0.7004 -0.3875 -0.7455
   86DG     H16 1971   2.020   2.227   4.017  0.0060 -1.4154 -1.5949
   86DG     C17 1972   2.324   2.298   3.742 -0.5556 -0.8661  0.2233
   86DG     C18 1973   2.233   2.245   3.953 -0.4694 -0.5329  0.0420
   86DG     O19 1974   2.223   2.225   3.806 -0.2851 -0.3997  0.1468
   86DG     H20 1975   2.324   2.404   3.766  2.7137 -1.0825  1.7492
   86DG     H21 1976   2.421   2.264   3.778 -0.2130 -0.5452 -0.3910
   86DG     H22 1977   2.238   2.349   3.985  3.1629 -0.5481  0.0248
   86DG     H23 1978   2.327   2.204   3.992  0.4621  0.7313 -0.7850
   87DG      C1 1979   0.516   2.883   4.095  0.2512 -0.3126 -0.4022
   87DG      C2 1980   0.770   2.652   4.685  0.0391 -0.2512 -0.8774
   87DG      H3 1981   0.518   2.956   4.013 -0.2388  1.5798  1.2007
   87DG      H4 1982   0.443   2.802   4.100 -1.0485  0.8626  0.2237
   87DG      H5 1983   0.614   2.837   4.077  0.4023 -0.5180  0.8527
   87DG      H6 1984   0.720   2.607   4.770  2.7512 -0.2132  0.8569
   87DG      H7 1985   0.783   2.572   4.613  1.3153 -1.6700  0.8428
   87DG      H8 1986   0.863   2.693   4.724 -1.2870  4.1711 -1.7705
   87DG      O9 1987   0.538   2.937   4.225  0.3162  0.1775  0.2060
   87DG     O10 1988   0.693   2.761   4.622  0.7776 -0.2946  0.9425
   87DG     C11 1989   0.431   2.988   4.306 -1.0677 -0.0239  0.2089
   87DG     C12 1990   0.639   2.855   4.714 -0.5474 -0.0286 -0.0293
   87DG     H13 1991   0.354   2.911   4.310 -1.6498  0.5084 -0.4783
   87DG     H14 1992   0.378   3.066   4.252  0.5437 -1.2969 -3.5382
   87DG     H15 1993   0.720   2.882   4.782  0.6907 -0.0789 -1.4290
   87DG     H16 1994   0.563   2.817   4.782 -0.1082  1.9287  1.6576
   87DG     C17 1995   0.484   3.042   4.442 -0.1721 -0.0220 -0.1149
   87DG     C18 1996   0.577   2.975   4.644  0.3131 -0.0540  0.6016
   87DG     O19 1997   0.524   2.936   4.523 -0.0577 -0.1407 -0.2620
   87DG     H20 1998   0.401   3.090   4.495  0.7093 -0.9439  2.2438
   87DG     H21 1999   0.563   3.113   4.418 -0.2706  0.5143  1.0757
   87DG     H22 2000   0.499   3.025   4.702 -0.7472  0.1497 -0.9513
   87DG     H23 2001   0.648   3.057   4.645 -0.0156  0.2961  3.1103
   88DG      C1 2002   2.079   3.669   2.457  0.7731  0.0603 -0.0287
   88DG      C2 2003   1.863   3.537   2.853  0.6375 -0.2876 -0.9551
   88DG      H3 2004   2.187   3.674   2.468  0.7070  2.0319  0.0942
   88DG      H4 2005   2.069   3.726   2.364  3.6931  2.5435  1.0042
   88DG      H5 2006   2.065   3.565   2.427 -0.7421  0.6309 -1.4841
   88DG      H6 2007   1.761   3.510   2.879  1.2500  0.7651  3.2769
   88DG      H7 2008   1.874   3.578   2.753  1.8080  1.6447 -0.1026
   88DG      H8 2009   1.921   3.445   2.866  0.9603  0.1329  0.8467
   88DG      O9 2010   1.997   3.720   2.565 -0.4222 -0.4006  0.5608
   88DG     O10 2011   1.918   3.634   2.948 -0.1308  0.0834  0.0821
   88DG     C11 2012   2.024   3.860   2.578  0.7195  0.3050 -0.1459
   88DG     C12 2013   1.841   3.751   2.989  0.1498  0.0754  0.5821
   88DG     H13 2014   2.000   3.905   2.481 -1.2530 -2.6117 -1.1448
   88DG     H14 2015   2.127   3.890   2.595  0.7933  0.4626 -0.8271
   88DG     H15 2016   1.905   3.813   3.051 -0.0232 -0.6065  1.4838
   88DG     H16 2017   1.746   3.734   3.040 -1.0043 -1.1966 -1.8340
   88DG     C17 2018   1.917   3.907   2.680  0.4452 -0.5378 -0.2007
   88DG     C18 2019   1.810   3.827   2.866 -0.3244  0.1669  0.5789
   88DG     O19 2020   1.934   3.830   2.796 -0.0960  0.0167 -0.5574
   88DG     H20 2021   1.814   3.902   2.645  0.0218  0.8180  0.7430
   88DG     H21 2022   1.922   4.015   2.697 -1.4231 -0.5312  0.5610
   88DG     H22 2023   1.737   3.775   2.805 -0.1891  2.4670 -1.6998
   88DG     H23 2024   1.777   3.930   2.873 -1.3865  0.1931 -2.9649
   89DG      C1 2025   4.648   3.663   4.732 -0.5610  0.2132 -1.0614
   89DG      C2 2026   5.300   3.391   4.753  0.3817  0.4805 -0.2498
   89DG      H3 2027   4.662   3.682   4.626 -1.8319 -0.2772 -1.3374
   89DG      H4 2028   4.587   3.741   4.778 -0.0647  0.9929 -1.7086
   89DG      H5 2029   4.584   3.575   4.740 -0.5566  0.2944 -0.0059
   89DG      H6 2030   5.340   3.429   4.659 -2.2162  0.5320 -1.4367
   89DG      H7 2031   5.379   3.368   4.824 -0.1648 -0.6677  0.0144
   89DG      H8 2032   5.247   3.296   4.741  0.0962  0.0002  3.5578
   89DG      O9 2033   4.769   3.656   4.806  0.8693  0.3299  0.2001
   89DG     O10 2034   5.211   3.488   4.793  0.0002  0.4997 -0.5028
   89DG     C11 2035   4.841   3.785   4.817  0.0247  0.0263  0.0013
   89DG     C12 2036   5.283   3.591   4.850 -0.2747  0.3250 -0.5058
   89DG     H13 2037   4.780   3.871   4.844  0.1260  0.2315 -0.4059
   89DG     H14 2038   4.880   3.821   4.722 -0.2122 -0.9348 -0.4774
   89DG     H15 2039   5.347   3.653   4.787  1.5924  0.2400  1.2140
   89DG     H16 2040   5.351   3.562   4.930  0.6081  0.5437 -1.1633
   89DG     C17 2041   4.962   3.781   4.909 -0.3866  1.1339  0.3018
   89DG     C18 2042   5.174   3.679   4.926 -0.2096 -0.0981  0.1181
   89DG     O19 2043   5.058   3.693   4.845 -0.0292 -0.8554 -0.3062
   89DG     H20 2044   4.924   3.732   4.999 -0.8633 -1.2373 -1.1115
   89DG     H21 2045   5.009   3.877   4.931  0.8579  0.6450 -0.1098
   89DG     H22 2046   5.150   3.634   5.023 -0.1940  1.7517  1.0321
   89DG     H23 2047   5.213   3.779   4.945 -1.6851  0.8992 -1.7979
   90DG      C1 2048   0.321   4.314   4.623 -1.0069  0.6219  0.1043
   90DG      C2 2049  -0.188   4.742   4.755  0.2287 -0.3634 -0.3233
   90DG      H3 2050   0.402   4.386   4.639 -0.1152 -0.1154 -0.9329
   90DG      H4 2051   0.278   4.334   4.525  0.5981  1.1591 -0.5272
   90DG      H5 2052   0.378   4.222   4.615 -0.0717  1.1354  0.6414
   90DG      H6 2053  -0.095   4.793   4.780 -0.0654 -0.5571  1.2651
   90DG      H7 2054  -0.206   4.770   4.651 -0.3266  0.0791 -0.1137
   90DG      H8 2055  -0.264   4.783   4.821 -0.3997 -1.5308 -0.2986
   90DG      O9 2056   0.222   4.322   4.720  0.8413  0.1503  0.1643
   90DG     O10 2057  -0.180   4.601   4.768  0.1370 -0.3972 -0.4691
   90DG     C11 2058   0.130   4.214   4.717 -0.2560  0.9736 -0.3038
   90DG     C12 2059  -0.142   4.562   4.899 -0.2863  0.0051 -0.1682
   90DG     H13 2060   0.178   4.117   4.736  0.6941  1.1685 -1.5845
   90DG     H14 2061   0.082   4.200   4.620  0.6830  0.7290 -0.7402
   90DG     H15 2062  -0.212   4.588   4.978  1.8095 -0.8185  2.1258
   90DG     H16 2063  -0.044   4.602   4.928 -0.0450 -2.1424  2.2855
   90DG     C17 2064   0.012   4.238   4.812 -0.1364  0.3317 -0.1208
   90DG     C18 2065  -0.123   4.414   4.897  0.1371 -0.5521 -0.1206
   90DG     O19 2066  -0.037   4.371   4.791 -0.5285  0.3917  0.5560
   90DG     H20 2067   0.062   4.226   4.908 -0.0422 -0.0593 -0.2182
   90DG     H21 2068  -0.070   4.167   4.809 -0.3937  0.6520 -1.0739
   90DG     H22 2069  -0.079   4.392   4.995 -0.4379 -1.2065 -0.0020
   90DG     H23 2070  -0.213   4.354   4.878 -0.8784  0.5372  1.0441
   91DG      C1 2071   0.399   1.706   3.511  0.1787  0.0300 -0.1424
   91DG      C2 2072   0.193   2.209   4.063 -1.0025  0.2823  0.2646
   91DG      H3 2073   0.324   1.691   3.434 -1.0434  0.8006  0.8545
   91DG      H4 2074   0.449   1.610   3.522 -0.0087  0.2351  3.8088
   91DG      H5 2075   0.471   1.778   3.472 -0.1639  0.6443  0.3382
   91DG      H6 2076   0.234   2.230   4.161 -0.6267  2.3684 -0.2911
   91DG      H7 2077   0.223   2.297   4.006  0.3230  2.0258  3.4128
   91DG      H8 2078   0.085   2.201   4.068 -1.3226  2.4637 -1.4932
   91DG      O9 2079   0.347   1.755   3.635 -0.5154  0.0666 -0.4127
   91DG     O10 2080   0.239   2.087   4.011  0.0235 -0.6157  0.0625
   91DG     C11 2081   0.274   1.872   3.621 -0.1755  0.5314 -0.2798
   91DG     C12 2082   0.381   2.091   4.004  0.4454  0.7258  0.2311
   91DG     H13 2083   0.175   1.846   3.582 -0.7347  1.1888  0.6436
   91DG     H14 2084   0.322   1.937   3.549  2.6491 -2.2749 -1.1138
   91DG     H15 2085   0.404   2.090   4.110 -1.6943  0.8724  0.7303
   91DG     H16 2086   0.416   2.181   3.952  0.0238 -0.0046 -1.3876
   91DG     C17 2087   0.278   1.943   3.752 -0.4888 -0.7454  0.6699
   91DG     C18 2088   0.420   1.952   3.947 -0.5626  0.4780  0.0084
   91DG     O19 2089   0.408   1.938   3.805  0.3436  0.2103  0.3375
   91DG     H20 2090   0.207   1.899   3.822 -1.0709 -0.8491  0.0247
   91DG     H21 2091   0.250   2.045   3.727  1.6448 -0.4561 -0.7917
   91DG     H22 2092   0.526   1.941   3.972 -0.6945  0.8251  0.7569
   91DG     H23 2093   0.366   1.874   4.001 -0.7312 -0.0227 -0.8602
   92DG      C1 2094   2.277   4.097   0.861  0.5999  0.3030 -0.2434
   92DG      C2 2095   1.657   3.913   0.700 -0.3428  0.2129  0.3214
   92DG      H3 2096   2.385   4.095   0.879  0.1804 -1.5483  3.0559
   92DG      H4 2097   2.237   4.122   0.960 -0.7342  0.2639 -0.7481
   92DG      H5 2098   2.248   4.182   0.799 -1.0805  1.9786  2.5793
   92DG      H6 2099   1.572   3.919   0.769  0.3673  1.1816  1.1339
   92DG      H7 2100   1.651   3.999   0.635  0.3689 -0.7742 -1.1016
   92DG      H8 2101   1.656   3.827   0.633  0.5906 -0.0725  0.6561
   92DG      O9 2102   2.221   3.975   0.802  0.2278 -0.0854 -0.5781
   92DG     O10 2103   1.779   3.912   0.771 -0.8491 -0.3075 -0.1400
   92DG     C11 2104   2.252   3.854   0.877 -0.2610  0.0295 -0.0067
   92DG     C12 2105   1.808   3.796   0.848 -0.1881  0.1897  0.0882
   92DG     H13 2106   2.225   3.868   0.982 -1.2297 -1.4429 -0.0225
   92DG     H14 2107   2.359   3.837   0.870 -0.2631  0.0283 -0.0348
   92DG     H15 2108   1.792   3.711   0.782  0.0007  0.1122  0.1446
   92DG     H16 2109   1.732   3.789   0.925 -1.1006  2.2304 -0.5524
   92DG     C17 2110   2.169   3.733   0.809 -0.2130 -0.2895 -0.4560
   92DG     C18 2111   1.955   3.800   0.897 -0.2374 -0.0886  0.3713
   92DG     O19 2112   2.035   3.781   0.779 -0.0884 -0.3530 -0.0143
   92DG     H20 2113   2.165   3.645   0.874  0.1873 -0.5958 -0.8415
   92DG     H21 2114   2.210   3.701   0.713  2.3019 -0.6421  0.6666
   92DG     H22 2115   1.980   3.896   0.943  0.0349 -0.2003  0.4592
   92DG     H23 2116   1.965   3.726   0.976 -1.1992  1.5607  2.1303
   93DG      C1 2117   0.844   0.945   2.038  0.5908  0.9499 -0.2426
   93DG      C2 2118   0.673   0.499   1.548  0.4046  0.6079  0.0002
   93DG      H3 2119   0.914   0.890   2.102 -0.8457  0.1277  0.6946
   93DG      H4 2120   0.818   1.041   2.082 -0.9387 -0.4715  2.1821
   93DG      H5 2121   0.884   0.949   1.937  1.7271 -2.5255 -0.0789
   93DG      H6 2122   0.596   0.432   1.509  0.2461  0.4175  0.6181
   93DG      H7 2123   0.730   0.552   1.472  2.3476  1.0488  1.6698
   93DG      H8 2124   0.753   0.444   1.598  1.0750 -1.4721 -3.0599
   93DG      O9 2125   0.725   0.866   2.031 -0.4235  0.0450 -0.6476
   93DG     O10 2126   0.614   0.598   1.632 -0.2916 -0.5371 -0.1437
   93DG     C11 2127   0.621   0.938   1.972 -0.1601  0.4771 -0.1997
   93DG     C12 2128   0.532   0.547   1.738  0.1174  0.4865 -0.7576
   93DG     H13 2129   0.660   0.975   1.877  0.7645 -0.8418 -0.3679
   93DG     H14 2130   0.587   1.025   2.027 -2.5430 -0.2397 -0.4035
   93DG     H15 2131   0.584   0.485   1.811  0.6331  0.3151 -1.2620
   93DG     H16 2132   0.461   0.476   1.694 -0.8708  0.1012  1.3363
   93DG     C17 2133   0.501   0.839   1.960  0.1114 -0.2989  0.4683
   93DG     C18 2134   0.456   0.662   1.814 -0.0345 -0.3329  0.3960
   93DG     O19 2135   0.550   0.744   1.876  0.0582 -0.1077 -0.3712
   93DG     H20 2136   0.410   0.884   1.919 -0.7133 -0.8121  1.6673
   93DG     H21 2137   0.480   0.781   2.050  0.1098 -1.0395  0.0033
   93DG     H22 2138   0.387   0.720   1.753  1.2038  0.1999 -0.5482
   93DG     H23 2139   0.399   0.618   1.896  0.5300  1.7112  1.9674
   94DG      C1 2140   4.040   4.033   2.904  0.1908 -0.2239  0.5224
   94DG      C2 2141   3.947   3.347   2.858 -0.0931 -0.3497 -0.1321
   94DG      H3 2142   4.070   4.121   2.848  2.6746 -0.7013  0.9675
   94DG      H4 2143   4.102   4.021   2.994  0.7548  2.0049  0.4893
   94DG      H5 2144   3.937   4.042   2.937 -0.9966 -0.4876 -2.7518
   94DG      H6 2145   3.851   3.364   2.906 -0.0957 -0.9565  0.0911
   94DG      H7 2146   3.924   3.270   2.784  0.3371 -3.1382  2.4353
   94DG      H8 2147   4.008   3.293   2.930  1.5100  2.4356  0.7430
   94DG      O9 2148   4.046   3.913   2.820  0.0200  0.4960 -0.3464
   94DG     O10 2149   4.014   3.470   2.827 -0.3872  0.3710  0.5464
   94DG     C11 2150   4.171   3.913   2.749 -0.3567 -0.5354  0.1526
   94DG     C12 2151   4.141   3.431   2.779 -0.3260  0.0317 -0.2224
   94DG     H13 2152   4.247   3.940   2.823 -1.1888  0.8565  0.5298
   94DG     H14 2153   4.164   3.998   2.681  1.9998  0.0963  0.6114
   94DG     H15 2154   4.133   3.341   2.717 -1.9147 -1.1453  1.5876
   94DG     H16 2155   4.203   3.394   2.861 -0.5290 -0.5406 -0.3192
   94DG     C17 2156   4.191   3.781   2.671 -0.2374  0.4770  0.6040
   94DG     C18 2157   4.197   3.545   2.691 -0.3664 -0.2462 -0.8747
   94DG     O19 2158   4.144   3.670   2.742 -0.3050 -0.3622  0.0347
   94DG     H20 2159   4.298   3.777   2.648 -0.4182 -0.8906 -0.0646
   94DG     H21 2160   4.131   3.778   2.580 -0.5376 -0.1939  0.8208
   94DG     H22 2161   4.305   3.551   2.705 -0.5514  3.0191 -0.1106
   94DG     H23 2162   4.170   3.533   2.586 -1.4137  2.2001 -0.9320
   95DG      C1 2163   5.426   0.444   1.214  0.1172 -0.2153  0.2215
   95DG      C2 2164   5.587   0.718   0.510  0.2895  0.3661 -0.1906
   95DG      H3 2165   5.376   0.395   1.297 -0.9405 -0.0112 -0.2758
   95DG      H4 2166   5.423   0.549   1.246 -0.7892 -0.3225  0.5341
   95DG      H5 2167   5.526   0.404   1.202  0.1734  0.0988 -0.4215
   95DG      H6 2168   5.509   0.767   0.452 -0.6582 -0.5659  0.2747
   95DG      H7 2169   5.605   0.778   0.599  0.8799 -0.3290  0.1777
   95DG      H8 2170   5.678   0.711   0.449  0.1279  1.5722 -0.5906
   95DG      O9 2171   5.360   0.424   1.088  0.3689  0.1200 -0.1292
   95DG     O10 2172   5.547   0.583   0.532  0.7587 -0.3363 -0.0572
   95DG     C11 2173   5.445   0.461   0.988 -0.3396 -0.0897 -1.2763
   95DG     C12 2174   5.627   0.501   0.621  0.1816  0.6327  0.1629
   95DG     H13 2175   5.540   0.408   0.985 -0.3370 -0.1191 -0.7300
   95DG     H14 2176   5.475   0.566   0.990 -0.9671  0.0762 -0.0342
   95DG     H15 2177   5.694   0.559   0.685  0.0859 -0.6217  1.4320
   95DG     H16 2178   5.694   0.431   0.571  0.4748 -0.7074  2.2896
   95DG     C17 2179   5.366   0.440   0.864  0.0505 -0.2773 -0.0421
   95DG     C18 2180   5.521   0.419   0.696 -1.1410 -0.6489 -0.3131
   95DG     O19 2181   5.431   0.504   0.757  0.2358 -0.3620 -0.4838
   95DG     H20 2182   5.269   0.491   0.861 -0.7525 -1.7873 -1.8777
   95DG     H21 2183   5.350   0.335   0.843 -0.3622  0.1366 -2.0584
   95DG     H22 2184   5.464   0.351   0.633 -0.9706 -1.2789  0.2024
   95DG     H23 2185   5.581   0.352   0.758  2.0575  0.5663 -1.8643
   96DG      C1 2186   1.304   3.605   3.464 -0.3423  0.3439  0.4379
   96DG      C2 2187   1.669   3.229   3.096 -0.2430  0.0483  0.0576
   96DG      H3 2188   1.272   3.503   3.484  0.0031  0.1960  0.2330
   96DG      H4 2189   1.248   3.636   3.375 -0.5767  0.1513  0.5176
   96DG      H5 2190   1.281   3.672   3.547  1.4179  1.9939 -0.3444
   96DG      H6 2191   1.651   3.288   3.006 -2.1016  2.5455  1.9090
   96DG      H7 2192   1.754   3.168   3.069 -2.8775 -3.4578 -1.0197
   96DG      H8 2193   1.583   3.165   3.118  0.0233 -0.1837  0.4284
   96DG      O9 2194   1.443   3.600   3.427  0.6410  0.1554 -0.7428
   96DG     O10 2195   1.691   3.312   3.204  0.3082  0.1966 -0.5887
   96DG     C11 2196   1.511   3.711   3.369  0.2776  0.1388 -0.5136
   96DG     C12 2197   1.804   3.398   3.195  0.6343  1.2263 -0.1556
   96DG     H13 2198   1.492   3.808   3.414 -0.9947 -0.2345 -0.2036
   96DG     H14 2199   1.484   3.725   3.265  1.1931 -1.4733 -1.0147
   96DG     H15 2200   1.806   3.461   3.106 -0.6761  3.8746  1.5333
   96DG     H16 2201   1.892   3.336   3.208 -0.5312 -1.2273 -3.0655
   96DG     C17 2202   1.660   3.684   3.361 -0.1455  0.2085 -0.2283
   96DG     C18 2203   1.800   3.502   3.301  0.1342  0.4795  0.3056
   96DG     O19 2204   1.674   3.560   3.293  0.0237  0.3388  0.0114
   96DG     H20 2205   1.701   3.681   3.462  0.5089  1.9466 -0.4029
   96DG     H21 2206   1.719   3.771   3.333 -0.0297  1.2125  2.7113
   96DG     H22 2207   1.819   3.457   3.399 -0.6471  1.4963  0.9390
   96DG     H23 2208   1.878   3.578   3.293 -0.3941  1.1032  0.9212
   97DG      C1 2209   2.836   5.033   3.185 -0.3427  0.7903  0.1209
   97DG      C2 2210   3.050   5.701   3.206 -0.1600  0.1030 -0.1273
   97DG      H3 2211   2.844   4.945   3.249 -4.4853 -0.6271 -0.9456
   97DG      H4 2212   2.935   5.077   3.181 -0.5112  1.3121  1.1688
   97DG      H5 2213   2.837   4.996   3.083 -0.6510  0.4896  0.2220
   97DG      H6 2214   3.021   5.727   3.308  0.7038 -1.4269  0.5610
   97DG      H7 2215   3.151   5.739   3.192  0.3502 -1.7592 -2.1180
   97DG      H8 2216   2.989   5.763   3.141  2.0612  2.3852 -0.1790
   97DG      O9 2217   2.747   5.127   3.229 -0.0475  0.1242  0.1318
   97DG     O10 2218   3.038   5.562   3.193  0.1633  0.1421 -0.4367
   97DG     C11 2219   2.786   5.205   3.346 -0.1228  0.6685 -0.4384
   97DG     C12 2220   3.109   5.488   3.292  0.2494 -0.3599  0.2615
   97DG     H13 2221   2.814   5.143   3.431 -2.2248  2.2484  1.5187
   97DG     H14 2222   2.703   5.256   3.395 -0.4606 -0.1358 -0.1463
   97DG     H15 2223   3.077   5.502   3.395  0.5168  1.5782  0.1274
   97DG     H16 2224   3.212   5.523   3.277  0.1383  0.3615  1.0557
   97DG     C17 2225   2.892   5.313   3.320  0.2722  0.1010 -0.9174
   97DG     C18 2226   3.122   5.338   3.257  0.8249  0.0876 -0.1308
   97DG     O19 2227   3.019   5.253   3.317 -0.1583  0.6737 -0.0477
   97DG     H20 2228   2.884   5.384   3.402 -0.2526 -0.2538 -0.6480
   97DG     H21 2229   2.858   5.372   3.235  1.0119  1.2205 -0.4583
   97DG     H22 2230   3.114   5.334   3.148  2.2868  0.2531 -0.2651
   97DG     H23 2231   3.223   5.302   3.274  0.9517 -0.5225 -1.9125
   98DG      C1 2232   0.669   2.813   5.051 -0.2423 -0.0402 -0.7858
   98DG      C2 2233   1.191   2.399   4.750 -0.5712 -0.7179  0.3025
   98DG      H3 2234   0.598   2.873   4.995  0.1865 -1.3421 -2.8376
   98DG      H4 2235   0.762   2.839   5.003  0.5509 -2.9066 -1.0134
   98DG      H5 2236   0.678   2.838   5.157 -2.8435 -1.0488 -0.2396
   98DG      H6 2237   1.291   2.373   4.787  1.5055  1.2789 -3.3277
   98DG      H7 2238   1.182   2.371   4.646 -0.4716 -1.4111  0.4750
   98DG      H8 2239   1.200   2.507   4.758  1.6638 -0.6823 -1.6654
   98DG      O9 2240   0.633   2.673   5.024  0.0908 -0.7103  0.4359
   98DG     O10 2241   1.084   2.356   4.842  0.5542 -0.1288  0.1111
   98DG     C11 2242   0.702   2.579   5.109 -0.0999  0.3344 -0.1348
   98DG     C12 2243   0.962   2.329   4.776  0.0606 -0.6128  0.2170
   98DG     H13 2244   0.649   2.566   5.203 -1.1358 -3.0021 -1.0615
   98DG     H14 2245   0.804   2.608   5.132 -0.6558  2.1057  0.2604
   98DG     H15 2246   0.985   2.234   4.727  0.8685  0.0093 -0.6417
   98DG     H16 2247   0.951   2.405   4.699  3.6628  0.3842  0.5028
   98DG     C17 2248   0.717   2.441   5.041  0.0551 -0.1389  1.0680
   98DG     C18 2249   0.848   2.326   4.876  0.3043 -0.0130 -0.6731
   98DG     O19 2250   0.823   2.452   4.943  0.4322 -0.5601 -0.3801
   98DG     H20 2251   0.618   2.416   5.003  1.0299 -1.1063 -0.9682
   98DG     H21 2252   0.748   2.366   5.114  0.2988 -1.1853 -0.0697
   98DG     H22 2253   0.751   2.297   4.836 -0.0061 -1.3308  0.9192
   98DG     H23 2254   0.864   2.241   4.942 -0.8868  0.4284  0.2173
   99DG      C1 2255   4.253   0.509   5.175 -0.4733 -0.6493 -0.5902
   99DG      C2 2256   4.866   0.879   5.422 -0.4052 -0.1170  0.3323
   99DG      H3 2257   4.309   0.438   5.114  0.5343 -0.1907 -0.2061
   99DG      H4 2258   4.229   0.577   5.093  2.3484 -2.2767 -2.9703
   99DG      H5 2259   4.164   0.453   5.205 -0.9906  0.2809 -0.3462
   99DG      H6 2260   4.846   0.985   5.437 -2.1365 -0.2417 -0.8293
   99DG      H7 2261   4.935   0.823   5.485  0.7017  0.9192  0.0996
   99DG      H8 2262   4.900   0.871   5.319 -0.9391  0.3766  0.1112
   99DG      O9 2263   4.328   0.562   5.284  0.7572  0.0662  0.0417
   99DG     O10 2264   4.752   0.800   5.430  0.3772  0.2068 -0.4250
   99DG     C11 2265   4.260   0.654   5.371  0.2429  0.0412  0.0670
   99DG     C12 2266   4.685   0.806   5.558 -0.3823 -0.2408  0.0173
   99DG     H13 2267   4.160   0.624   5.402 -0.5888  2.3488 -0.1612
   99DG     H14 2268   4.260   0.757   5.336 -0.1985  0.8358  2.2586
   99DG     H15 2269   4.649   0.908   5.573  1.9483  0.9417 -1.7591
   99DG     H16 2270   4.759   0.779   5.633 -0.8882  0.2585  0.7093
   99DG     C17 2271   4.345   0.665   5.500  0.2106 -0.5176  0.2410
   99DG     C18 2272   4.567   0.702   5.571 -0.9799 -0.0358  0.2314
   99DG     O19 2273   4.474   0.710   5.462  0.4547  0.5920  0.2209
   99DG     H20 2274   4.352   0.562   5.535 -1.1585 -1.2190 -1.4026
   99DG     H21 2275   4.302   0.728   5.578  3.2142  0.8737  0.8923
   99DG     H22 2276   4.609   0.601   5.583 -1.8328 -0.9609 -3.3783
   99DG     H23 2277   4.516   0.722   5.665 -0.2662  3.1414  0.0304
  100DG      C1 2278   3.914   4.475   5.036  0.4037  0.4001 -0.4097
  100DG      C2 2279   3.528   4.006   4.628  0.1060  0.1027  0.5608
  100DG      H3 2280   4.014   4.438   5.058  1.1577  1.9553 -1.0099
  100DG      H4 2281   3.850   4.457   5.122 -2.7994  0.6620 -2.5731
  100DG      H5 2282   3.919   4.584   5.029  0.0168  0.3777 -1.1361
  100DG      H6 2283   3.505   4.028   4.524 -0.3937  2.4190  1.1083
  100DG      H7 2284   3.637   4.000   4.624  0.0916  0.6091 -1.1844
  100DG      H8 2285   3.482   3.909   4.645 -0.5595  0.1083 -1.0203
  100DG      O9 2286   3.846   4.423   4.921  0.5649  0.3318  0.1084
  100DG     O10 2287   3.494   4.100   4.726  0.3821 -0.1015 -0.0221
  100DG     C11 2288   3.713   4.471   4.909 -0.2976 -1.0582 -0.5865
  100DG     C12 2289   3.517   4.042   4.854 -0.0888  0.3202 -0.1253
  100DG     H13 2290   3.681   4.497   4.807 -0.3543  0.5232 -0.1907
  100DG     H14 2291   3.709   4.565   4.962  2.3289  0.2178 -2.4108
  100DG     H15 2292   3.608   3.983   4.868 -1.0025 -0.5229  3.3335
  100DG     H16 2293   3.432   3.982   4.885  1.1629 -1.3189  0.2843
  100DG     C17 2294   3.607   4.375   4.970 -0.1185 -0.3779  0.1152
  100DG     C18 2295   3.530   4.158   4.959 -0.0382  0.0493  0.1923
  100DG     O19 2296   3.624   4.250   4.907  0.4412 -0.7025 -0.0229
  100DG     H20 2297   3.503   4.403   4.955 -0.2735 -0.0519  1.6968
  100DG     H21 2298   3.631   4.360   5.075 -0.1499 -2.3259 -0.1279
  100DG     H22 2299   3.439   4.218   4.963  0.1130  0.5560 -2.3536
  100DG     H23 2300   3.540   4.113   5.058  2.5473 -3.4229 -1.4487
  101DG      C1 2301   2.333   2.391   4.772 -0.5174  0.5033  0.7823
  101DG      C2 2302   2.392   2.049   5.374  0.1454 -0.0866  0.4150
  101DG      H3 2303   2.430   2.423   4.734 -1.2732  2.4121  0.3500
  101DG      H4 2304   2.256   2.442   4.715  0.2016  1.2082  0.4171
  101DG      H5 2305   2.316   2.285   4.752 -0.9383  0.2481  2.3832
  101DG      H6 2306   2.319   1.976   5.338 -0.8126  0.1211  1.8480
  101DG      H7 2307   2.490   2.004   5.366  0.5067  0.2821  2.3313
  101DG      H8 2308   2.383   2.053   5.483  2.1665  0.0456  0.6089
  101DG      O9 2309   2.316   2.406   4.907  0.1752  0.1740  0.0679
  101DG     O10 2310   2.367   2.175   5.306  0.8224  0.5657 -0.2213
  101DG     C11 2311   2.344   2.540   4.960  0.1105  0.2858  0.0999
  101DG     C12 2312   2.444   2.287   5.359  0.0839 -0.0042  0.1272
  101DG     H13 2313   2.277   2.615   4.919 -0.6873 -0.9099 -0.8786
  101DG     H14 2314   2.450   2.558   4.944  0.0132  0.4032 -0.4603
  101DG     H15 2315   2.545   2.270   5.324 -0.2334  0.9868 -1.3551
  101DG     H16 2316   2.435   2.284   5.468  1.1904  1.1776  0.2700
  101DG     C17 2317   2.321   2.535   5.114  0.6656 -0.3568  0.1452
  101DG     C18 2318   2.396   2.418   5.303  0.1250  0.6296  0.0200
  101DG     O19 2319   2.389   2.416   5.159 -0.9378  0.0093 -0.3239
  101DG     H20 2320   2.215   2.522   5.134  0.9552 -0.0317  2.0639
  101DG     H21 2321   2.348   2.630   5.159 -0.5425  0.4575 -0.7884
  101DG     H22 2322   2.299   2.435   5.349  1.0046  0.5177  1.9995
  101DG     H23 2323   2.465   2.495   5.338  1.1126 -0.7940  1.3198
  102DG      C1 2324   4.201   4.026   1.427 -0.6482  0.0022 -0.1263
  102DG      C2 2325   3.430   3.949   1.100 -0.4539 -0.2335 -0.1312
  102DG      H3 2326   4.210   4.134   1.416 -0.8644 -0.0029 -0.3436
  102DG      H4 2327   4.261   3.973   1.354 -2.5965 -0.6093 -1.3477
  102DG      H5 2328   4.240   4.003   1.527 -0.6846  4.0073  0.9816
  102DG      H6 2329   3.467   4.043   1.060 -0.7839  1.1261  2.5534
  102DG      H7 2330   3.428   3.872   1.023  0.7667  0.7890 -1.2470
  102DG      H8 2331   3.326   3.967   1.129 -0.0678  1.2944  0.4119
  102DG      O9 2332   4.066   3.990   1.421 -1.0535 -0.1789 -0.3398
  102DG     O10 2333   3.490   3.911   1.223  0.2624  0.3482 -0.7446
  102DG     C11 2334   4.052   3.852   1.437 -0.4802  0.6903 -0.9258
  102DG     C12 2335   3.631   3.911   1.227  0.1631  0.0510 -0.1944
  102DG     H13 2336   4.104   3.795   1.514 -1.7929 -2.6828 -2.2994
  102DG     H14 2337   4.087   3.810   1.342  1.6790  0.9153 -0.2753
  102DG     H15 2338   3.678   4.004   1.195  0.3084 -0.2400 -0.8455
  102DG     H16 2339   3.658   3.841   1.148 -0.8909 -0.0608 -0.4646
  102DG     C17 2340   3.909   3.817   1.448  0.1683  0.5683 -0.5867
  102DG     C18 2341   3.697   3.858   1.355 -0.6037  0.2012 -0.0334
  102DG     O19 2342   3.840   3.881   1.341 -0.5358 -0.2390  0.1327
  102DG     H20 2343   3.867   3.858   1.540 -1.7551  2.5274 -2.2016
  102DG     H21 2344   3.903   3.708   1.440 -2.2982  0.5679  0.2410
  102DG     H22 2345   3.656   3.906   1.443 -0.4219 -0.9812  0.7221
  102DG     H23 2346   3.671   3.752   1.363  0.5360  0.0367  2.3974
  103DG      C1 2347   2.794   3.683   4.784  0.2960  0.1618 -0.3081
  103DG      C2 2348   3.140   4.166   4.999  0.4820  0.3551  1.0508
  103DG      H3 2349   2.878   3.617   4.761  0.6626 -0.1095  1.6205
  103DG      H4 2350   2.802   3.764   4.711  6.3147 -0.4661 -0.9097
  103DG      H5 2351   2.703   3.625   4.769  0.6069 -0.1273 -1.1834
  103DG      H6 2352   3.115   4.266   5.036 -0.9406 -0.2106  1.7163
  103DG      H7 2353   3.241   4.136   5.025  0.9689 -0.7047 -1.7528
  103DG      H8 2354   3.132   4.163   4.891 -0.1079 -1.7000  1.1068
  103DG      O9 2355   2.803   3.751   4.913 -0.0712  0.0507  0.4911
  103DG     O10 2356   3.058   4.065   5.054  0.6446 -0.0057  0.0711
  103DG     C11 2357   2.691   3.827   4.960 -0.2269 -0.1959 -0.7262
  103DG     C12 2358   3.032   4.056   5.197 -0.4836 -0.0818  0.0774
  103DG     H13 2359   2.598   3.770   4.963 -0.4233  0.1321  1.8735
  103DG     H14 2360   2.685   3.913   4.893  2.0349  0.6784  0.1149
  103DG     H15 2361   2.992   4.150   5.233  0.5274 -0.1867  1.5712
  103DG     H16 2362   3.128   4.044   5.248 -0.3364 -2.3755 -0.6066
  103DG     C17 2363   2.731   3.854   5.110 -0.7825 -0.5120 -0.5440
  103DG     C18 2364   2.928   3.950   5.220 -0.1239  0.4406  0.1094
  103DG     O19 2365   2.839   3.945   5.103  0.6413 -0.2611 -0.1083
  103DG     H20 2366   2.751   3.758   5.157 -1.7994 -0.1226  0.7489
  103DG     H21 2367   2.650   3.906   5.161 -0.5034 -0.6830  0.0876
  103DG     H22 2368   2.977   3.854   5.236 -0.8482  0.1869  0.8719
  103DG     H23 2369   2.867   3.965   5.309 -0.0145 -1.4906  0.5638
  104DG      C1 2370   1.575   2.532   1.596  0.0911  0.8968  0.3759
  104DG      C2 2371   1.923   2.071   1.818 -0.2800  0.3679 -0.9724
  104DG      H3 2372   1.525   2.440   1.626 -1.2915  1.1085 -1.1396
  104DG      H4 2373   1.588   2.542   1.488  0.0747  1.2599  0.4064
  104DG      H5 2374   1.507   2.614   1.620  0.4457  1.0965  0.7102
  104DG      H6 2375   1.873   1.974   1.813 -0.2266 -0.1054  3.3917
  104DG      H7 2376   1.975   2.089   1.724  0.1427  0.0962 -0.7944
  104DG      H8 2377   1.995   2.062   1.900 -2.2818  0.9298  0.9460
  104DG      O9 2378   1.698   2.548   1.656 -0.5151 -0.3854  0.0715
  104DG     O10 2379   1.831   2.167   1.839 -0.2975 -0.2366  0.3792
  104DG     C11 2380   1.701   2.601   1.793 -0.7372 -1.2132  0.3807
  104DG     C12 2381   1.806   2.182   1.976  0.5631 -0.2160  0.4104
  104DG     H13 2382   1.644   2.694   1.794 -0.7701 -1.1711 -1.6658
  104DG     H14 2383   1.804   2.622   1.823 -1.0503  3.1931 -0.9307
  104DG     H15 2384   1.889   2.219   2.036 -0.5831  1.9772  0.7684
  104DG     H16 2385   1.772   2.089   2.021 -1.4905  1.2934  2.2026
  104DG     C17 2386   1.636   2.512   1.892  0.2776 -0.1519  0.0824
  104DG     C18 2387   1.700   2.293   1.996 -1.0931  0.6774 -0.2938
  104DG     O19 2388   1.720   2.391   1.889  0.1668  0.1795 -0.3178
  104DG     H20 2389   1.537   2.482   1.857  0.9091 -2.5214  0.2052
  104DG     H21 2390   1.640   2.555   1.992  2.8381 -0.4078  0.1511
  104DG     H22 2391   1.595   2.263   1.994 -0.7576 -0.5053 -1.4815
  104DG     H23 2392   1.700   2.335   2.097 -2.8566 -1.0302  0.4862
  105DG      C1 2393   0.477   5.268   2.530 -0.1136  0.4202 -0.2701
  105DG      C2 2394   0.953   5.694   2.382  0.3276  0.1973 -0.2124
  105DG      H3 2395   0.414   5.209   2.597  0.3476  0.3264  0.0891
  105DG      H4 2396   0.564   5.206   2.510 -0.5181 -0.1335 -0.3363
  105DG      H5 2397   0.426   5.277   2.434 -0.7438  0.7301  0.0869
  105DG      H6 2398   1.025   5.613   2.396  2.0041  1.2072 -2.3455
  105DG      H7 2399   0.897   5.686   2.289  0.9472  2.4752 -0.8646
  105DG      H8 2400   1.018   5.782   2.377 -0.8891  1.0816 -1.2466
  105DG      O9 2401   0.537   5.389   2.578  0.3232 -0.0574  0.3547
  105DG     O10 2402   0.866   5.699   2.487  0.0673 -0.3201  0.0323
  105DG     C11 2403   0.435   5.493   2.586 -1.0005  0.4820  0.8690
  105DG     C12 2404   0.779   5.810   2.492  0.5983 -0.0971  0.5634
  105DG     H13 2405   0.363   5.467   2.663 -3.6061  1.6968 -0.9882
  105DG     H14 2406   0.387   5.504   2.488  2.7981  1.3349 -1.0982
  105DG     H15 2407   0.737   5.839   2.396  2.6767 -0.6469 -0.5751
  105DG     H16 2408   0.838   5.894   2.529  1.4020 -0.2849 -0.2628
  105DG     C17 2409   0.489   5.621   2.634  0.1186 -0.4211  0.5661
  105DG     C18 2410   0.659   5.776   2.591  0.0372 -0.4728  0.8195
  105DG     O19 2411   0.607   5.647   2.562 -0.2402  0.2103  0.0086
  105DG     H20 2412   0.513   5.610   2.739 -0.9945  0.1161  0.8882
  105DG     H21 2413   0.412   5.696   2.617  0.0365 -0.9044 -1.5816
  105DG     H22 2414   0.699   5.780   2.692 -0.2552  0.4583  0.9115
  105DG     H23 2415   0.576   5.842   2.567  0.0694 -0.3962  0.9180
  106DG      C1 2416   1.036   3.433   0.911 -0.6224 -0.1625 -0.0027
  106DG      C2 2417   0.624   3.671   0.434  0.4243  0.5697  0.3199
  106DG      H3 2418   1.128   3.425   0.853 -0.0903  1.4745  0.5561
  106DG      H4 2419   0.989   3.336   0.898 -0.2939 -0.3314  0.0404
  106DG      H5 2420   1.056   3.426   1.018 -1.0408 -1.4752  0.0060
  106DG      H6 2421   0.551   3.590   0.442  0.0362  0.8723 -0.1829
  106DG      H7 2422   0.562   3.744   0.383  1.5432  1.4727  0.2246
  106DG      H8 2423   0.703   3.645   0.364  1.1162 -2.4840  2.0068
  106DG      O9 2424   0.961   3.549   0.876  0.1351  0.3738  0.2820
  106DG     O10 2425   0.665   3.712   0.562 -0.0292 -0.0128  0.4554
  106DG     C11 2426   1.030   3.665   0.897 -0.2125  0.3868  0.3204
  106DG     C12 2427   0.752   3.828   0.555 -0.3609  0.2419  0.0585
  106DG     H13 2428   1.110   3.674   0.823 -1.4761  0.3617 -1.0964
  106DG     H14 2429   1.066   3.670   1.000 -0.3103 -0.3897  0.3997
  106DG     H15 2430   0.708   3.914   0.505  0.6396  2.4762  2.7306
  106DG     H16 2431   0.842   3.800   0.501  0.8435  1.1745  1.5151
  106DG     C17 2432   0.932   3.772   0.872  0.3713 -0.1854 -0.5932
  106DG     C18 2433   0.801   3.873   0.696  0.2997  0.5349 -0.0989
  106DG     O19 2434   0.868   3.763   0.746 -0.1248 -0.2023  0.2735
  106DG     H20 2435   0.981   3.869   0.885 -0.5835  0.1801  0.5113
  106DG     H21 2436   0.857   3.774   0.951  0.4786  0.7795 -0.5016
  106DG     H22 2437   0.869   3.957   0.689  0.3843  0.6766  1.8268
  106DG     H23 2438   0.722   3.898   0.767  0.1119 -1.2457  0.3777
  107DG      C1 2439   1.975   2.234   1.031 -0.1004 -0.5534 -0.7073
  107DG      C2 2440   1.624   1.803   1.472  0.4244  0.1638  0.2468
  107DG      H3 2441   2.021   2.255   0.934 -0.0766  1.3996 -0.3147
  107DG      H4 2442   2.056   2.229   1.104 -0.4336  1.2486 -0.1614
  107DG      H5 2443   1.916   2.320   1.061 -1.4303 -2.0177  1.1340
  107DG      H6 2444   1.620   1.699   1.504 -1.5245  0.7146  1.9759
  107DG      H7 2445   1.681   1.849   1.553 -0.2311  0.4073  0.5781
  107DG      H8 2446   1.523   1.844   1.476  0.1034 -0.5889 -0.0095
  107DG      O9 2447   1.904   2.109   1.026  0.0713 -0.4928  0.0898
  107DG     O10 2448   1.682   1.826   1.344  0.5863  0.0707 -0.1424
  107DG     C11 2449   1.784   2.131   0.961 -0.1488 -0.4442  0.8210
  107DG     C12 2450   1.606   1.781   1.231 -0.1008 -0.3262 -0.0500
  107DG     H13 2451   1.805   2.165   0.860 -1.4626 -1.3339  0.2218
  107DG     H14 2452   1.721   2.200   1.018  1.4602  0.2482  1.8476
  107DG     H15 2453   1.503   1.817   1.226 -0.5612 -1.6799 -0.8116
  107DG     H16 2454   1.595   1.673   1.226 -2.6721 -0.1167 -0.4240
  107DG     C17 2455   1.716   2.000   0.957 -0.5836  0.6813  0.2726
  107DG     C18 2456   1.680   1.819   1.105  0.8785  0.4256  0.2476
  107DG     O19 2457   1.699   1.965   1.093  0.8803 -0.3114  0.0501
  107DG     H20 2458   1.785   1.929   0.910 -1.8770 -0.9121  0.6678
  107DG     H21 2459   1.628   2.013   0.894  0.2087  1.7872 -0.6662
  107DG     H22 2460   1.775   1.766   1.097  0.6746  0.2733 -1.6879
  107DG     H23 2461   1.625   1.777   1.021 -1.7576  3.2256  0.4090
  108DG      C1 2462   2.466   3.682   4.095 -0.4917  0.5691 -0.3756
  108DG      C2 2463   2.905   3.823   4.224  0.5158 -0.4001  0.8470
  108DG      H3 2464   2.450   3.711   4.199 -0.8685 -0.3499 -0.1676
  108DG      H4 2465   2.569   3.704   4.068 -0.1092 -0.4555  0.1811
  108DG      H5 2466   2.466   3.573   4.095  0.8713  0.5525 -0.4648
  108DG      H6 2467   2.883   3.895   4.303 -1.4721 -1.2433  1.1295
  108DG      H7 2468   2.884   3.721   4.256  0.1248 -0.0056  1.9051
  108DG      H8 2469   3.010   3.825   4.196  0.6850 -0.9914  1.4171
  108DG      O9 2470   2.365   3.735   4.016 -0.0309 -0.2052 -0.0028
  108DG     O10 2471   2.802   3.854   4.131 -0.5962  0.0110  0.5709
  108DG     C11 2472   2.350   3.876   4.025  0.5113  0.0191 -0.3769
  108DG     C12 2473   2.811   3.975   4.049 -0.2106  0.0415 -0.0855
  108DG     H13 2474   2.350   3.917   4.126 -0.5542 -1.0211  0.0611
  108DG     H14 2475   2.251   3.902   3.987 -0.4218 -0.3214  1.6766
  108DG     H15 2476   2.908   3.971   3.998 -0.0751 -2.2409  0.2384
  108DG     H16 2477   2.805   4.068   4.106 -1.0460 -0.8433  1.3464
  108DG     C17 2478   2.455   3.939   3.938  0.4753  0.8099  0.4290
  108DG     C18 2479   2.696   3.968   3.955  0.5573  0.1938  0.1551
  108DG     O19 2480   2.571   3.958   4.015 -0.5266 -0.3047  0.3037
  108DG     H20 2481   2.411   4.028   3.893  2.0892  1.0036 -0.8649
  108DG     H21 2482   2.475   3.874   3.854  0.0088  1.2706 -0.0478
  108DG     H22 2483   2.684   4.049   3.883 -2.2106 -1.1374 -1.0501
  108DG     H23 2484   2.708   3.879   3.894 -3.0065  0.5444 -1.2957
  109DG      C1 2485   0.551   3.792   2.891 -0.2311  0.7622 -0.6489
  109DG      C2 2486   0.313   3.562   2.415  0.3619  0.4547 -0.3822
  109DG      H3 2487   0.519   3.885   2.845 -0.0237 -0.1782 -2.8372
  109DG      H4 2488   0.660   3.792   2.892 -0.1979  0.2498 -1.8886
  109DG      H5 2489   0.522   3.785   2.996 -2.9803 -3.6497 -1.4286
  109DG      H6 2490   0.235   3.518   2.353 -0.8597  2.5576 -0.4079
  109DG      H7 2491   0.296   3.669   2.416  0.7020  0.5088  0.1274
  109DG      H8 2492   0.410   3.526   2.380  0.2410  0.5481 -0.8128
  109DG      O9 2493   0.502   3.668   2.836  0.4687  0.0056 -0.1975
  109DG     O10 2494   0.293   3.527   2.551  0.3393  0.7440 -0.5727
  109DG     C11 2495   0.545   3.549   2.906 -0.1048 -0.4019  0.2538
  109DG     C12 2496   0.302   3.385   2.585 -0.0201  0.2448 -0.1752
  109DG     H13 2497   0.489   3.553   2.999  0.4681  1.6826  0.5558
  109DG     H14 2498   0.654   3.544   2.911 -0.0343  0.4755 -0.1736
  109DG     H15 2499   0.401   3.353   2.551 -0.8967 -1.9892 -0.7504
  109DG     H16 2500   0.231   3.326   2.528  1.0106 -2.3343  1.0389
  109DG     C17 2501   0.500   3.433   2.827  0.6381  0.2751  0.0811
  109DG     C18 2502   0.287   3.367   2.733  0.3041  0.1531  0.2710
  109DG     O19 2503   0.357   3.450   2.824 -0.2362 -0.2027  0.0021
  109DG     H20 2504   0.547   3.342   2.866  0.5068  0.5209  0.8308
  109DG     H21 2505   0.540   3.434   2.726  1.4572  0.9877  0.3988
  109DG     H22 2506   0.182   3.375   2.760 -0.2800 -0.3128 -1.7204
  109DG     H23 2507   0.303   3.261   2.755 -0.9667 -0.2755 -0.7116
  110DG      C1 2508   3.814   1.991   4.063 -0.1345 -0.4653 -0.0697
  110DG      C2 2509   4.010   1.969   4.693  0.1254  0.2911  1.0605
  110DG      H3 2510   3.766   2.088   4.074  1.2510  0.2092  0.3290
  110DG      H4 2511   3.782   1.937   3.974  0.0717  0.1324 -0.5125
  110DG      H5 2512   3.917   2.017   4.035 -0.2465 -0.7537 -0.7758
  110DG      H6 2513   4.084   2.023   4.635  0.9574 -1.4552  0.4520
  110DG      H7 2514   3.935   2.043   4.723  0.7698  1.1686  0.5520
  110DG      H8 2515   4.055   1.915   4.776  1.9491  0.3093  0.1162
  110DG      O9 2516   3.820   1.914   4.173 -0.1471  0.1239 -0.4484
  110DG     O10 2517   3.969   1.866   4.610 -0.0741  0.4221 -0.0197
  110DG     C11 2518   3.713   1.817   4.191 -0.3910  0.2962  0.4686
  110DG     C12 2519   3.845   1.818   4.649 -0.0657 -0.0500  0.1184
  110DG     H13 2520   3.714   1.750   4.105 -1.7365  1.2249 -0.3096
  110DG     H14 2521   3.623   1.877   4.179  1.6029  3.0962 -2.2135
  110DG     H15 2522   3.778   1.892   4.693 -0.7541  0.8534 -2.2864
  110DG     H16 2523   3.861   1.751   4.733 -0.8989 -0.9086 -0.3851
  110DG     C17 2524   3.730   1.722   4.310 -0.4543  0.0088  0.5182
  110DG     C18 2525   3.781   1.740   4.537 -0.4797  0.3040 -0.5691
  110DG     O19 2526   3.782   1.807   4.416  0.2197  0.3253  0.0322
  110DG     H20 2527   3.803   1.643   4.291  2.2802  2.1402  1.5121
  110DG     H21 2528   3.633   1.681   4.338 -2.0356  2.3971 -1.1405
  110DG     H22 2529   3.824   1.641   4.535 -1.9871 -0.4369 -3.8052
  110DG     H23 2530   3.677   1.718   4.564  0.3593  0.0592  2.9620
  111DG      C1 2531   0.638   5.439   2.230 -0.4741 -0.4857 -0.7710
  111DG      C2 2532   0.840   5.438   2.772 -1.1729  0.1721 -0.6401
  111DG      H3 2533   0.606   5.543   2.230  0.6951 -0.1066 -0.3576
  111DG      H4 2534   0.552   5.390   2.276 -0.7064 -0.1053 -0.7926
  111DG      H5 2535   0.649   5.404   2.128  0.3189 -0.2482 -0.7711
  111DG      H6 2536   0.863   5.422   2.877  0.7217 -0.9446 -1.1680
  111DG      H7 2537   0.828   5.546   2.764 -1.6184  0.2484  0.8145
  111DG      H8 2538   0.748   5.393   2.736 -1.4671  0.1905  0.0848
  111DG      O9 2539   0.758   5.416   2.296  0.0302 -0.8007  0.1692
  111DG     O10 2540   0.954   5.398   2.683 -0.2542  0.2837  0.0249
  111DG     C11 2541   0.829   5.308   2.244 -0.3029 -0.3398  0.2667
  111DG     C12 2542   0.974   5.260   2.698 -0.3722 -0.9996 -0.6965
  111DG     H13 2543   0.868   5.330   2.145 -0.9791  0.8648  0.2541
  111DG     H14 2544   0.773   5.216   2.227 -0.9547 -0.9128  4.3842
  111DG     H15 2545   0.885   5.216   2.742 -0.7839  0.5832  0.1669
  111DG     H16 2546   1.054   5.237   2.769 -0.5077  0.8687  0.1414
  111DG     C17 2547   0.939   5.252   2.343  0.5004  0.5713 -0.6789
  111DG     C18 2548   1.002   5.197   2.561  0.2741 -0.1599  0.0145
  111DG     O19 2549   0.895   5.246   2.475  0.2103  0.2212 -0.1116
  111DG     H20 2550   1.027   5.317   2.345  1.5599 -0.7508  2.5720
  111DG     H21 2551   0.964   5.151   2.310 -1.7289  0.0094 -0.8152
  111DG     H22 2552   1.097   5.238   2.527 -1.5524  3.3144 -1.4347
  111DG     H23 2553   1.006   5.088   2.563 -2.0525 -0.3277 -1.0589
  112DG      C1 2554   4.783   2.654   3.683 -0.1845 -0.3069 -0.8960
  112DG      C2 2555   4.963   2.000   3.875  0.4316 -0.6813  0.2966
  112DG      H3 2556   4.681   2.661   3.648 -1.3524  1.2278  2.3814
  112DG      H4 2557   4.855   2.624   3.607 -1.3037  2.2500 -3.1407
  112DG      H5 2558   4.812   2.752   3.722 -2.5271  0.1365 -0.1090
  112DG      H6 2559   4.895   1.942   3.813 -1.0083  1.5330 -0.3014
  112DG      H7 2560   5.053   2.018   3.815 -0.6522  0.6390 -1.0056
  112DG      H8 2561   4.994   1.935   3.956  3.2978 -0.4379 -0.4676
  112DG      O9 2562   4.799   2.561   3.794  0.3985  0.1115  0.3306
  112DG     O10 2563   4.907   2.127   3.907 -0.2669 -0.5370 -0.0471
  112DG     C11 2564   4.710   2.589   3.898  0.1872  0.7197 -0.7450
  112DG     C12 2565   4.774   2.119   3.973  0.0253 -0.2708 -0.0135
  112DG     H13 2566   4.608   2.566   3.865 -0.4955 -1.7179  2.5252
  112DG     H14 2567   4.708   2.691   3.935  1.9354 -0.0523  1.7343
  112DG     H15 2568   4.773   2.043   4.052 -1.9717 -0.5871 -0.2848
  112DG     H16 2569   4.705   2.082   3.897  0.5157  0.6872 -0.9498
  112DG     C17 2570   4.733   2.483   4.008 -0.3968 -0.2882  0.3045
  112DG     C18 2571   4.725   2.250   4.028 -0.2254  0.9398 -0.3100
  112DG     O19 2572   4.734   2.355   3.939  0.0396 -0.2297  0.0395
  112DG     H20 2573   4.649   2.494   4.077 -2.0942  0.4576 -1.7848
  112DG     H21 2574   4.831   2.490   4.055  0.2065 -3.2781 -0.3072
  112DG     H22 2575   4.626   2.245   4.074  0.1989  0.9094  0.6363
  112DG     H23 2576   4.798   2.270   4.107  0.3839  0.9157 -0.8559
  113DG      C1 2577   4.461   4.357   3.330 -0.4379 -0.3295 -0.1627
  113DG      C2 2578   4.228   4.385   2.705  0.5398  0.4823 -0.0894
  113DG      H3 2579   4.368   4.303   3.348  0.1909 -1.1328  0.8182
  113DG      H4 2580   4.505   4.414   3.412  0.2281  0.1393 -0.8396
  113DG      H5 2581   4.533   4.280   3.303 -1.6234 -0.9751 -1.5823
  113DG      H6 2582   4.313   4.321   2.682  1.2420  0.8816  1.3370
  113DG      H7 2583   4.158   4.331   2.769 -1.5160  1.2834 -1.5153
  113DG      H8 2584   4.181   4.392   2.606  2.4018  0.7294 -0.9934
  113DG      O9 2585   4.430   4.444   3.223 -0.0113  0.2324 -0.2307
  113DG     O10 2586   4.274   4.509   2.759  0.0524 -0.0124  0.1761
  113DG     C11 2587   4.336   4.544   3.258  0.5881 -1.0425  0.2993
  113DG     C12 2588   4.175   4.587   2.819 -0.0856  0.2970 -1.0764
  113DG     H13 2589   4.359   4.592   3.353 -0.7061  1.3340 -0.5002
  113DG     H14 2590   4.231   4.516   3.265 -0.3760  2.1542  0.5469
  113DG     H15 2591   4.110   4.517   2.870  1.9082 -1.0771 -0.3020
  113DG     H16 2592   4.129   4.651   2.743 -0.5778 -0.3110 -1.2966
  113DG     C17 2593   4.327   4.651   3.144 -0.4337  0.3005  0.3053
  113DG     C18 2594   4.242   4.682   2.918  0.4454  0.4341  0.5884
  113DG     O19 2595   4.286   4.594   3.019  0.1528 -0.0747 -0.8719
  113DG     H20 2596   4.423   4.697   3.119 -1.4979  2.9220  0.6426
  113DG     H21 2597   4.263   4.730   3.185  1.7866  1.8226  1.0565
  113DG     H22 2598   4.329   4.734   2.876 -0.7740  2.0196 -0.0870
  113DG     H23 2599   4.177   4.753   2.969 -0.0200 -1.5800  2.9431
  114DG      C1 2600   2.813   4.851   5.428 -0.0959  0.1819 -0.3690
  114DG      C2 2601   2.627   5.181   5.942  0.2980  0.4251  0.2629
  114DG      H3 2602   2.917   4.884   5.435  0.5472 -1.4881 -1.4034
  114DG      H4 2603   2.806   4.815   5.325  2.3697  1.0947 -0.9225
  114DG      H5 2604   2.801   4.763   5.492 -2.4776 -0.8529 -2.1022
  114DG      H6 2605   2.729   5.183   5.981 -0.0756 -1.4543  1.4877
  114DG      H7 2606   2.578   5.260   5.999  0.0316 -0.1363  0.8239
  114DG      H8 2607   2.581   5.085   5.966  0.4353 -0.4058 -2.4810
  114DG      O9 2608   2.730   4.960   5.461  0.0203 -0.3164 -0.0347
  114DG     O10 2609   2.613   5.197   5.801 -0.3756 -0.0348  0.3944
  114DG     C11 2610   2.755   5.069   5.372  0.3154 -0.0374 -0.0837
  114DG     C12 2611   2.617   5.330   5.750 -0.6535  0.2876 -0.0391
  114DG     H13 2612   2.732   5.036   5.270  0.9663 -1.6217  0.2548
  114DG     H14 2613   2.861   5.093   5.382  0.4252  0.2093 -1.5054
  114DG     H15 2614   2.712   5.370   5.787 -0.9232 -1.3547  2.7176
  114DG     H16 2615   2.535   5.391   5.788 -1.2158 -0.3049 -0.2839
  114DG     C17 2616   2.668   5.190   5.410  0.0001  0.1473  0.2561
  114DG     C18 2617   2.615   5.323   5.599  0.1615 -0.9074  0.1661
  114DG     O19 2618   2.690   5.209   5.550  0.0304  0.5411 -0.0966
  114DG     H20 2619   2.568   5.169   5.372  0.7462  0.4423 -2.0139
  114DG     H21 2620   2.704   5.274   5.350 -0.2775 -0.8101 -1.3058
  114DG     H22 2621   2.512   5.315   5.564 -0.2019  0.1390  0.9290
  114DG     H23 2622   2.655   5.415   5.557  1.8670 -1.2669  0.9116
  115DG      C1 2623   0.918   1.796   2.980  0.9620 -0.3687 -0.1455
  115DG      C2 2624   1.213   1.271   2.795 -0.2535  0.4937 -0.4661
  115DG      H3 2625   0.894   1.732   3.066 -1.4459 -1.2521 -1.3826
  115DG      H4 2626   0.846   1.757   2.908 -1.5032  0.5512  1.6746
  115DG      H5 2627   0.901   1.901   3.002  0.9001 -0.0369 -1.6772
  115DG      H6 2628   1.284   1.204   2.747  0.5966  0.4253  0.8265
  115DG      H7 2629   1.200   1.235   2.896  0.4059  1.3587 -0.0544
  115DG      H8 2630   1.119   1.260   2.742 -1.2568 -0.3845  1.4286
  115DG      O9 2631   1.053   1.774   2.938  0.4155  0.1519 -0.6124
  115DG     O10 2632   1.271   1.401   2.808  0.1960  0.6760 -0.2959
  115DG     C11 2633   1.147   1.805   3.038  1.0047 -0.2566  0.2212
  115DG     C12 2634   1.380   1.410   2.892  0.3017  0.2782  0.2902
  115DG     H13 2635   1.121   1.755   3.131 -2.5048 -0.1494 -0.5934
  115DG     H14 2636   1.142   1.913   3.055 -1.3268 -0.2037 -0.5079
  115DG     H15 2637   1.468   1.360   2.853  0.4775  0.1906  0.7857
  115DG     H16 2638   1.368   1.367   2.992  0.1668  1.2940  0.7253
  115DG     C17 2639   1.285   1.761   2.980  0.5054  0.5506  0.1614
  115DG     C18 2640   1.405   1.565   2.923 -0.7389 -0.2789  0.4508
  115DG     O19 2641   1.280   1.617   2.960  0.1421 -0.8763  0.3244
  115DG     H20 2642   1.365   1.790   3.048 -0.9202  2.2413  1.1970
  115DG     H21 2643   1.300   1.807   2.883  1.6517  0.5118  0.3064
  115DG     H22 2644   1.486   1.587   2.993 -0.1946  1.9981 -0.8198
  115DG     H23 2645   1.426   1.609   2.826  0.9019 -0.6632  0.6067
  116DG      C1 2646   3.999   3.012   4.385  0.1749 -0.2632 -0.0756
  116DG      C2 2647   4.015   2.746   5.017 -0.1252 -1.1155 -0.3777
  116DG      H3 2648   3.943   3.097   4.423  0.6635  0.4368 -0.9009
  116DG      H4 2649   3.959   3.003   4.284 -1.0347  2.8395  0.0220
  116DG      H5 2650   4.098   3.054   4.366  0.1211 -0.9891 -2.2548
  116DG      H6 2651   3.955   2.665   5.059  0.0137 -0.5809  0.8782
  116DG      H7 2652   4.111   2.758   5.067 -0.0933  0.1795 -0.7381
  116DG      H8 2653   3.953   2.834   5.035  0.8976 -0.4553 -0.0179
  116DG      O9 2654   3.983   2.892   4.453  0.1079 -0.7011  0.1261
  116DG     O10 2655   4.020   2.736   4.872 -0.4322  0.4524 -0.1535
  116DG     C11 2656   4.071   2.791   4.398 -0.4938  0.1265 -0.6857
  116DG     C12 2657   4.088   2.617   4.826 -0.8814  0.2137 -0.1241
  116DG     H13 2658   4.174   2.819   4.420  0.4348 -2.1907 -1.7680
  116DG     H14 2659   4.059   2.790   4.290  0.4802 -0.8779 -0.8119
  116DG     H15 2660   4.063   2.532   4.889 -2.1629  1.0996  0.5834
  116DG     H16 2661   4.197   2.623   4.833 -0.9454  0.0293  1.1707
  116DG     C17 2662   4.054   2.656   4.469  0.0722  0.2711 -0.8493
  116DG     C18 2663   4.052   2.588   4.685  0.0661  0.2944  0.0109
  116DG     O19 2664   4.090   2.695   4.602  0.3146 -0.1127  0.0934
  116DG     H20 2665   4.120   2.586   4.417  1.5946  0.5749  0.5833
  116DG     H21 2666   3.952   2.621   4.456  0.8800 -1.7958 -2.1128
  116DG     H22 2667   4.110   2.501   4.655  1.0772  0.5908  1.0248
  116DG     H23 2668   3.945   2.570   4.674  0.5093 -1.6293 -1.8629
  117DG      C1 2669   0.110   4.247   0.191  0.7446  0.0970  0.4872
  117DG      C2 2670   0.169   4.837   0.024 -0.0715  0.2156 -0.0123
  117DG      H3 2671   0.168   4.302   0.266  1.2174 -1.1907  1.1104
  117DG      H4 2672   0.157   4.148   0.190 -0.9500 -0.7736 -1.3583
  117DG      H5 2673   0.005   4.234   0.216  1.2734 -1.6650  2.0681
  117DG      H6 2674   0.227   4.849   0.116 -2.2071  1.1636  1.2889
  117DG      H7 2675   0.201   4.924  -0.033  0.2770 -0.0795 -0.2654
  117DG      H8 2676   0.071   4.847   0.072  0.6459 -0.6838  1.7122
  117DG      O9 2677   0.131   4.313   0.071  0.1970 -0.4627 -0.7177
  117DG     O10 2678   0.179   4.710  -0.053  0.5845 -0.2379 -0.1122
  117DG     C11 2679   0.076   4.245  -0.042 -0.3411 -0.3966  0.9611
  117DG     C12 2680   0.084   4.708  -0.159  0.7304  0.2816 -0.1130
  117DG     H13 2681  -0.032   4.234  -0.034 -0.4344 -0.0850  0.2200
  117DG     H14 2682   0.117   4.145  -0.053  1.0870  0.0047  2.2558
  117DG     H15 2683   0.087   4.794  -0.227  0.4627  0.1875 -0.2438
  117DG     H16 2684  -0.016   4.717  -0.117  0.9531 -1.2574  0.8003
  117DG     C17 2685   0.111   4.334  -0.166  0.4164 -0.0639 -0.2385
  117DG     C18 2686   0.106   4.577  -0.227 -1.0443 -0.6934  0.6319
  117DG     O19 2687   0.101   4.474  -0.129 -0.0376 -0.2353  0.5606
  117DG     H20 2688   0.031   4.300  -0.232 -0.3220  0.6222  0.2791
  117DG     H21 2689   0.209   4.310  -0.205  0.4959 -2.0979  1.0653
  117DG     H22 2690   0.031   4.559  -0.305 -0.7915 -1.1609  0.4878
  117DG     H23 2691   0.205   4.588  -0.272 -0.9424 -1.7155  0.5763
  118DG      C1 2692   5.331   2.737   5.476  0.1615 -0.9209  0.2297
  118DG      C2 2693   5.285   2.009   5.395  0.5084 -0.3954 -0.2899
  118DG      H3 2694   5.230   2.738   5.518 -0.5097  1.3018 -1.2779
  118DG      H4 2695   5.320   2.817   5.403 -1.4253  2.0939  3.4722
  118DG      H5 2696   5.399   2.776   5.552  0.6084  0.2803 -0.7492
  118DG      H6 2697   5.205   1.970   5.331 -1.9745  4.2968 -0.4809
  118DG      H7 2698   5.358   1.929   5.406  2.1342  0.7587 -2.1092
  118DG      H8 2699   5.244   2.019   5.496  0.1032 -0.6860 -0.4221
  118DG      O9 2700   5.367   2.614   5.421 -0.3554 -0.0196 -0.5452
  118DG     O10 2701   5.337   2.140   5.372 -0.1551  0.3277 -0.3526
  118DG     C11 2702   5.464   2.624   5.317  0.0189  0.4568  0.1151
  118DG     C12 2703   5.391   2.145   5.239  0.5756 -0.7186 -0.1249
  118DG     H13 2704   5.546   2.686   5.351 -0.5910  1.5747 -0.3899
  118DG     H14 2705   5.420   2.652   5.221  2.5756 -2.1687 -2.0017
  118DG     H15 2706   5.303   2.158   5.176 -0.1470 -1.2544  0.7435
  118DG     H16 2707   5.439   2.050   5.213  3.0729  0.5874 -0.6359
  118DG     C17 2708   5.526   2.484   5.301  0.1249 -0.7103 -0.0273
  118DG     C18 2709   5.486   2.262   5.229  0.1089  1.0074 -0.3408
  118DG     O19 2710   5.427   2.384   5.265 -0.2301  0.3052 -0.2513
  118DG     H20 2711   5.562   2.463   5.402 -2.6302  1.4648  1.5235
  118DG     H21 2712   5.607   2.494   5.228  0.2842  0.4318  0.2886
  118DG     H22 2713   5.561   2.233   5.303  1.1363  1.0269 -1.3389
  118DG     H23 2714   5.535   2.276   5.132 -2.0185  1.7390 -1.3683
  119DG      C1 2715   5.236   5.062   1.848  0.2584  0.2178 -0.2251
  119DG      C2 2716   5.318   4.865   1.144  0.2507 -0.1752 -0.0798
  119DG      H3 2717   5.165   5.132   1.803  1.1029  1.3100  0.0795
  119DG      H4 2718   5.314   5.122   1.895 -0.5672  2.2260 -1.2634
  119DG      H5 2719   5.186   4.993   1.915 -0.9068  0.5339 -0.7345
  119DG      H6 2720   5.255   4.948   1.111 -0.1118 -1.0202 -1.6238
  119DG      H7 2721   5.390   4.859   1.062 -0.7704  2.6475 -1.3103
  119DG      H8 2722   5.250   4.780   1.155  0.6665 -0.7693 -1.7346
  119DG      O9 2723   5.297   4.998   1.735  0.1956 -0.2849 -0.0941
  119DG     O10 2724   5.397   4.904   1.261  0.1799  0.2520 -0.0049
  119DG     C11 2725   5.389   4.893   1.769  0.2253 -0.0818 -0.4496
  119DG     C12 2726   5.479   4.793   1.302  0.5288 -0.0276  0.1197
  119DG     H13 2727   5.340   4.798   1.791 -1.2525  0.6934 -0.3389
  119DG     H14 2728   5.440   4.914   1.863  0.7950 -0.3255 -0.6948
  119DG     H15 2729   5.568   4.779   1.240 -0.2610 -0.7890 -0.8719
  119DG     H16 2730   5.427   4.698   1.309  0.4842  0.1081  2.2825
  119DG     C17 2731   5.496   4.880   1.659 -0.5086 -0.0884 -0.3330
  119DG     C18 2732   5.535   4.822   1.444  0.1442  0.1883  0.0571
  119DG     O19 2733   5.430   4.840   1.541  0.0800 -0.2555  0.6451
  119DG     H20 2734   5.568   4.802   1.683  0.8097  0.6783 -1.5953
  119DG     H21 2735   5.547   4.976   1.653 -1.0389  0.3324  1.3515
  119DG     H22 2736   5.597   4.742   1.485 -2.3560 -1.4011  1.0308
  119DG     H23 2737   5.600   4.908   1.439  0.4919  0.1551  2.5922
  120DG      C1 2738   1.151   3.984   1.894  0.0259  0.5568 -0.2950
  120DG      C2 2739   0.435   4.344   2.110 -0.8883  0.3887 -0.0216
  120DG      H3 2740   1.134   3.944   1.794  1.7593 -1.2672  0.0829
  120DG      H4 2741   1.140   3.896   1.959 -1.6428  1.2665  0.4426
  120DG      H5 2742   1.254   4.017   1.907 -0.6851  2.1281  2.0254
  120DG      H6 2743   0.408   4.243   2.142 -0.6984  0.6347  0.9473
  120DG      H7 2744   0.466   4.389   2.204 -1.4898 -0.5575  0.6526
  120DG      H8 2745   0.337   4.386   2.085 -1.1813 -1.1070 -1.5491
  120DG      O9 2746   1.059   4.093   1.918 -0.5372  0.2882  0.2268
  120DG     O10 2747   0.521   4.358   1.998  0.2497 -0.3527  0.3628
  120DG     C11 2748   1.049   4.179   1.806 -0.4365  0.1127 -0.3196
  120DG     C12 2749   0.630   4.272   1.990 -0.0730 -0.1163 -0.5227
  120DG     H13 2750   1.017   4.120   1.720 -0.6768  0.1009 -0.2227
  120DG     H14 2751   1.149   4.221   1.792 -0.6023  0.4269 -0.5814
  120DG     H15 2752   0.602   4.168   1.976 -0.9298  0.0574 -0.1237
  120DG     H16 2753   0.691   4.281   2.081  0.0618 -3.3917 -0.1648
  120DG     C17 2754   0.948   4.292   1.830  0.1922  0.4791  0.0812
  120DG     C18 2755   0.715   4.314   1.868  0.8187  0.4016  0.0096
  120DG     O19 2756   0.826   4.231   1.844  0.3028 -0.5122 -0.4844
  120DG     H20 2757   0.947   4.366   1.750 -0.8706 -1.6123 -1.9756
  120DG     H21 2758   0.960   4.354   1.919  2.7108 -0.3259  0.3744
  120DG     H22 2759   0.647   4.306   1.784  0.1622  1.4859  0.4209
  120DG     H23 2760   0.742   4.418   1.887  1.2365 -0.0259  2.0133
  121DG      C1 2761   3.788   2.817   0.631  0.2370  0.1707 -0.6231
  121DG      C2 2762   4.623   2.531   0.633 -0.1850  0.5135  0.4785
  121DG      H3 2763   3.721   2.740   0.595 -1.1275  0.7052  0.6546
  121DG      H4 2764   3.746   2.910   0.592 -0.5058 -0.0313 -0.3107
  121DG      H5 2765   3.777   2.814   0.740 -0.1499  1.0050 -0.6286
  121DG      H6 2766   4.612   2.485   0.732  3.1541  0.0951  0.7721
  121DG      H7 2767   4.577   2.458   0.566  1.5081 -1.3314  1.2161
  121DG      H8 2768   4.728   2.534   0.604  0.9940 -0.3202  4.0573
  121DG      O9 2769   3.924   2.808   0.607 -0.0084 -0.0819 -0.1852
  121DG     O10 2770   4.568   2.662   0.614  0.1534  0.3420 -0.7735
  121DG     C11 2771   4.012   2.889   0.680 -0.0519 -0.5880 -0.5118
  121DG     C12 2772   4.433   2.663   0.644 -0.1791  0.6209  0.5844
  121DG     H13 2773   4.019   2.854   0.783  1.1805  1.1989  0.0599
  121DG     H14 2774   3.962   2.986   0.689 -1.2926 -1.2035 -0.5400
  121DG     H15 2775   4.432   2.639   0.750  0.9164  1.2053  0.7422
  121DG     H16 2776   4.384   2.584   0.587  1.3047 -0.1039  0.2779
  121DG     C17 2777   4.146   2.897   0.627  0.1921 -0.0361 -0.2649
  121DG     C18 2778   4.364   2.799   0.617 -0.3580 -0.7626  0.3222
  121DG     O19 2779   4.231   2.790   0.662  0.3888  0.3740 -0.7027
  121DG     H20 2780   4.192   2.983   0.676  1.3005 -0.2670 -0.8650
  121DG     H21 2781   4.148   2.930   0.523 -0.3748 -1.5894 -0.7935
  121DG     H22 2782   4.417   2.883   0.662 -2.0032  0.8950 -0.7005
  121DG     H23 2783   4.373   2.809   0.509  0.4859 -3.2784  0.0892
  122DG      C1 2784   3.870   4.915   0.298  0.1434 -0.0489 -0.4634
  122DG      C2 2785   4.543   4.931   0.192 -0.0126  0.4873 -0.4827
  122DG      H3 2786   3.825   5.014   0.299  0.3479  0.0517 -0.8775
  122DG      H4 2787   3.844   4.876   0.396  1.4183  0.4446  0.0924
  122DG      H5 2788   3.813   4.853   0.228  1.0542 -1.4964  0.0366
  122DG      H6 2789   4.643   4.975   0.196  1.6892 -3.1139  0.2472
  122DG      H7 2790   4.564   4.825   0.191 -1.3941  0.1339  1.7701
  122DG      H8 2791   4.500   4.953   0.094 -0.3882  4.2489  0.3599
  122DG      O9 2792   4.009   4.917   0.272  0.5675  0.2622  0.2650
  122DG     O10 2793   4.468   4.940   0.314 -0.0286 -0.0371  0.5445
  122DG     C11 2794   4.036   4.979   0.145 -0.0261 -0.5114 -0.0734
  122DG     C12 2795   4.449   5.075   0.340 -0.0747  0.2928 -0.0460
  122DG     H13 2796   3.948   5.011   0.089 -0.3528  2.7569  2.0504
  122DG     H14 2797   4.082   4.902   0.082  0.8064  1.4153 -1.9176
  122DG     H15 2798   4.540   5.136   0.336  0.3875 -0.3295  0.6571
  122DG     H16 2799   4.423   5.074   0.446 -0.3634  0.9954 -0.1035
  122DG     C17 2800   4.129   5.094   0.166 -0.0140  0.0463  0.4713
  122DG     C18 2801   4.338   5.136   0.256  0.5400 -0.0003  0.1643
  122DG     O19 2802   4.231   5.042   0.239 -0.0326 -0.2433  0.1718
  122DG     H20 2803   4.088   5.174   0.228 -3.0401 -0.0293 -1.2134
  122DG     H21 2804   4.173   5.129   0.073 -0.3155 -0.1146  0.2664
  122DG     H22 2805   4.312   5.235   0.294  0.9003  0.0283  0.3393
  122DG     H23 2806   4.376   5.161   0.157  2.7830 -2.1719  0.3775
  123DG      C1 2807   1.779   2.902   2.126 -0.0276 -0.1629  0.2983
  123DG      C2 2808   1.551   2.369   2.515  0.7252  0.1403 -0.2213
  123DG      H3 2809   1.839   2.966   2.190 -0.2614 -0.0712  0.4250
  123DG      H4 2810   1.740   2.952   2.037  0.6598  0.2620  0.2343
  123DG      H5 2811   1.850   2.828   2.089 -1.2099 -1.9217  1.4182
  123DG      H6 2812   1.561   2.313   2.608  0.5136  0.6977  0.1439
  123DG      H7 2813   1.483   2.322   2.444 -0.7494  3.2356 -1.0310
  123DG      H8 2814   1.652   2.362   2.475  0.9609 -1.2241  0.5318
  123DG      O9 2815   1.674   2.823   2.176  0.1857  0.3251  0.3690
  123DG     O10 2816   1.507   2.502   2.540 -0.6923  0.9188 -0.3083
  123DG     C11 2817   1.578   2.891   2.259 -0.5378  0.1771  0.1978
  123DG     C12 2818   1.603   2.579   2.617  0.2865  0.2698  0.2291
  123DG     H13 2819   1.502   2.917   2.185  1.3944 -0.9171 -2.3072
  123DG     H14 2820   1.614   2.985   2.301 -1.6071  0.7688 -0.1662
  123DG     H15 2821   1.709   2.574   2.592  0.4023  0.4154  0.6950
  123DG     H16 2822   1.585   2.554   2.721  0.4447  2.0409  0.7146
  123DG     C17 2823   1.527   2.799   2.366  0.3596  0.0197  0.0810
  123DG     C18 2824   1.579   2.728   2.590  0.6268  0.0975 -0.0770
  123DG     O19 2825   1.625   2.777   2.462  0.5658 -0.4209 -0.2884
  123DG     H20 2826   1.489   2.704   2.329  2.0279 -0.7940  0.3814
  123DG     H21 2827   1.447   2.853   2.417  1.6407  1.0174  1.1000
  123DG     H22 2828   1.475   2.754   2.609  0.5625  0.4841 -0.8921
  123DG     H23 2829   1.643   2.788   2.655 -0.9491  2.8475 -0.8570
  124DG      C1 2830   2.284   3.496   2.695  0.7304  0.3229  0.1398
  124DG      C2 2831   2.113   3.965   3.208  0.4207 -0.0683  0.2985
  124DG      H3 2832   2.209   3.464   2.623  1.3636  0.1411 -0.4465
  124DG      H4 2833   2.361   3.419   2.692  0.0026 -0.4162 -0.0754
  124DG      H5 2834   2.315   3.597   2.668 -2.0523  1.3779  0.5065
  124DG      H6 2835   2.054   3.933   3.294  1.2223 -0.8371  0.5783
  124DG      H7 2836   2.189   4.036   3.242  0.2538  1.0091 -1.4434
  124DG      H8 2837   2.048   4.026   3.145  1.4556  1.6863  0.8677
  124DG      O9 2838   2.232   3.515   2.822 -0.1284  0.2187  0.2284
  124DG     O10 2839   2.163   3.848   3.137  0.0607 -0.2201  0.4419
  124DG     C11 2840   2.201   3.400   2.906  0.3480  0.2927  0.0231
  124DG     C12 2841   2.255   3.767   3.208 -0.3678  0.1677 -0.8990
  124DG     H13 2842   2.268   3.317   2.889 -0.9365 -0.4093 -1.9326
  124DG     H14 2843   2.104   3.354   2.889  0.2454  0.7908 -0.8214
  124DG     H15 2844   2.254   3.794   3.313  0.1415 -0.8718 -0.6144
  124DG     H16 2845   2.354   3.799   3.175 -0.7155 -0.3068 -2.4761
  124DG     C17 2846   2.195   3.440   3.051  0.1594 -0.2909 -0.5451
  124DG     C18 2847   2.238   3.612   3.198  0.2291  0.0547  0.2211
  124DG     O19 2848   2.243   3.575   3.066 -0.1136  0.0503  0.2674
  124DG     H20 2849   2.268   3.376   3.100  0.2607 -0.6694 -1.1793
  124DG     H21 2850   2.096   3.421   3.090  0.3674  0.2673  0.3011
  124DG     H22 2851   2.307   3.559   3.264 -1.1803 -1.8787  0.2180
  124DG     H23 2852   2.141   3.595   3.244  0.5990 -1.2859  0.5337
  125DG      C1 2853   2.556   4.459   4.629 -0.1985  0.3674  0.7422
  125DG      C2 2854   2.615   5.210   4.341  0.2505 -0.4590  0.4435
  125DG      H3 2855   2.507   4.362   4.624  1.3725 -0.3968 -0.4105
  125DG      H4 2856   2.485   4.532   4.669 -0.2220  0.4323  0.5834
  125DG      H5 2857   2.637   4.450   4.701  0.0152  0.3435  0.5008
  125DG      H6 2858   2.598   5.217   4.233  2.1079  1.3744  0.2183
  125DG      H7 2859   2.539   5.273   4.387 -3.9415 -1.3293 -4.3280
  125DG      H8 2860   2.715   5.248   4.363  0.5794 -0.3617 -1.0913
  125DG      O9 2861   2.606   4.506   4.500  0.2264 -0.1791 -0.6293
  125DG     O10 2862   2.600   5.074   4.389  0.0411 -0.0565 -0.1192
  125DG     C11 2863   2.695   4.618   4.501 -0.4689 -0.0726 -0.3194
  125DG     C12 2864   2.469   5.026   4.373  0.8296  0.5339 -0.1354
  125DG     H13 2865   2.738   4.620   4.401  3.0839  0.0748  1.0674
  125DG     H14 2866   2.787   4.614   4.560  0.5390 -1.8061 -1.9073
  125DG     H15 2867   2.445   4.997   4.271  1.5526 -0.3691 -0.0600
  125DG     H16 2868   2.398   5.101   4.408  0.6506  0.9090 -1.2605
  125DG     C17 2869   2.625   4.754   4.524 -0.0069 -0.0530 -0.5867
  125DG     C18 2870   2.437   4.898   4.463 -0.2861  0.1158 -0.1471
  125DG     O19 2871   2.522   4.784   4.433 -0.3376  0.7676 -0.0698
  125DG     H20 2872   2.704   4.828   4.534  0.8265 -1.0569  0.4648
  125DG     H21 2873   2.587   4.755   4.626  1.8711 -0.8842  0.1600
  125DG     H22 2874   2.445   4.938   4.565 -1.5667 -0.8452  0.3543
  125DG     H23 2875   2.331   4.876   4.455 -0.5133  0.6490  1.1518
  126DG      C1 2876   1.125   3.873   3.239 -0.4634  0.0814  0.5369
  126DG      C2 2877   0.932   4.181   2.619 -0.1365  1.0294 -0.0817
  126DG      H3 2878   1.088   3.972   3.267  0.1672  0.2581  0.7562
  126DG      H4 2879   1.234   3.880   3.231 -0.4148 -0.3737  0.7701
  126DG      H5 2880   1.106   3.796   3.313 -1.7781  1.8806  2.1597
  126DG      H6 2881   0.877   4.255   2.678 -1.1437  0.9655 -0.9176
  126DG      H7 2882   1.031   4.219   2.593  0.2626 -0.4917 -0.8819
  126DG      H8 2883   0.887   4.176   2.520 -0.7240  1.3981  0.1603
  126DG      O9 2884   1.060   3.863   3.112 -0.1930 -0.0217  0.5761
  126DG     O10 2885   0.933   4.063   2.701 -0.1667 -0.1360  0.4980
  126DG     C11 2886   1.097   3.741   3.045  0.7496  1.0209  0.0860
  126DG     C12 2887   0.961   3.949   2.622 -0.1709  0.7882 -0.8783
  126DG     H13 2888   1.080   3.657   3.112  0.2059  2.1028  1.3345
  126DG     H14 2889   1.200   3.742   3.011  0.0976  1.4552 -2.0477
  126DG     H15 2890   1.063   3.958   2.584  0.5295 -2.4075 -0.0244
  126DG     H16 2891   0.893   3.943   2.537 -0.1182 -0.4708 -0.8441
  126DG     C17 2892   1.010   3.725   2.927 -0.3592  0.6472  0.2887
  126DG     C18 2893   0.953   3.820   2.711 -0.3834  0.2040 -0.1210
  126DG     O19 2894   1.008   3.835   2.843  0.7752 -0.1328 -0.1787
  126DG     H20 2895   0.911   3.699   2.964  0.6396 -2.1947  1.2542
  126DG     H21 2896   1.049   3.642   2.867  1.1689  2.3537 -1.1974
  126DG     H22 2897   0.847   3.797   2.715 -0.9093  2.3345 -0.6371
  126DG     H23 2898   1.015   3.741   2.667  1.8246  1.8379 -0.1398
  127DG      C1 2899   1.464   4.401   2.609  0.0958  0.2957 -0.3540
  127DG      C2 2900   0.911   4.495   2.192  0.8455 -0.4454  0.8527
  127DG      H3 2901   1.548   4.425   2.544  0.9313 -1.1353  0.1591
  127DG      H4 2902   1.500   4.344   2.695 -1.9538  1.3741  1.3119
  127DG      H5 2903   1.419   4.488   2.656  0.0294 -0.3104  0.7460
  127DG      H6 2904   0.838   4.455   2.122 -0.7042  0.6528  1.7985
  127DG      H7 2905   0.862   4.564   2.260  0.2956 -0.2829  0.3036
  127DG      H8 2906   0.982   4.547   2.127  0.4781  0.3064  1.0509
  127DG      O9 2907   1.358   4.334   2.544 -0.0227  0.2235 -0.2717
  127DG     O10 2908   0.975   4.392   2.263 -0.3053  0.0645  0.3429
  127DG     C11 2909   1.414   4.229   2.458 -0.1486 -0.0577 -0.4042
  127DG     C12 2910   1.014   4.287   2.177 -0.6613  0.1566  0.3702
  127DG     H13 2911   1.477   4.159   2.514 -1.3351  1.0598  2.5445
  127DG     H14 2912   1.484   4.275   2.388 -0.6871 -1.1694 -1.7301
  127DG     H15 2913   1.070   4.335   2.097  0.4410  0.0998  1.0751
  127DG     H16 2914   0.927   4.235   2.137  0.3734 -1.4518  0.0776
  127DG     C17 2915   1.306   4.159   2.378 -0.2541 -0.4335  0.4172
  127DG     C18 2916   1.101   4.188   2.264 -0.3395 -0.6133 -0.2913
  127DG     O19 2917   1.215   4.253   2.323  0.0133 -0.0735 -0.4215
  127DG     H20 2918   1.251   4.097   2.449 -0.4047  0.0721  0.7465
  127DG     H21 2919   1.344   4.082   2.311 -1.0803 -0.9000  0.4781
  127DG     H22 2920   1.026   4.136   2.324 -0.8428 -0.3904 -0.7107
  127DG     H23 2921   1.142   4.112   2.196  0.6478 -1.1178  0.8425
  128DG      C1 2922   1.738   1.664   2.804 -0.0850 -0.0201 -0.1107
  128DG      C2 2923   1.753   0.949   2.864  0.4049 -0.2494 -0.7477
  128DG      H3 2924   1.699   1.747   2.745 -1.2509 -2.0794 -2.4302
  128DG      H4 2925   1.844   1.678   2.827 -0.3089 -1.5800  2.1651
  128DG      H5 2926   1.680   1.677   2.895  0.4992  0.8460  0.1617
  128DG      H6 2927   1.712   0.994   2.954 -1.4321  2.7815 -2.9190
  128DG      H7 2928   1.701   0.856   2.840 -0.0796 -0.0834 -0.3559
  128DG      H8 2929   1.858   0.919   2.871  0.6675  0.8373  0.3873
  128DG      O9 2930   1.707   1.531   2.752  0.1484 -0.5734 -0.4456
  128DG     O10 2931   1.736   1.046   2.758 -0.0829  0.1031  0.0235
  128DG     C11 2932   1.750   1.506   2.619 -0.3899 -0.5394 -0.1888
  128DG     C12 2933   1.600   1.063   2.726  0.3293  0.8838 -0.1718
  128DG     H13 2934   1.858   1.491   2.629 -0.6093 -0.5956  3.5020
  128DG     H14 2935   1.731   1.590   2.552 -0.7244 -2.7118 -2.9534
  128DG     H15 2936   1.546   1.086   2.818 -1.0077  1.1221 -1.0018
  128DG     H16 2937   1.573   0.965   2.687 -2.1999  1.1824  0.6711
  128DG     C17 2938   1.683   1.374   2.571 -0.7531  0.1307 -0.9048
  128DG     C18 2939   1.573   1.173   2.627 -0.7955 -0.3271  0.2048
  128DG     O19 2940   1.658   1.274   2.672  0.6856 -0.0165  0.9036
  128DG     H20 2941   1.723   1.336   2.477  0.4660  0.3457 -0.4879
  128DG     H21 2942   1.581   1.402   2.543 -1.4552 -2.0841 -0.7348
  128DG     H22 2943   1.584   1.139   2.524  0.5177 -1.0150  0.5450
  128DG     H23 2944   1.473   1.208   2.651  0.1602  1.8317  1.2998
  129DG      C1 2945   1.603   3.072   5.044  0.0773  0.3539 -0.2273
  129DG      C2 2946   2.213   3.100   4.867  0.5698  0.5025  0.3766
  129DG      H3 2947   1.554   3.116   5.131 -0.9100  2.6792 -1.8614
  129DG      H4 2948   1.545   2.989   5.005  1.8705 -0.5303 -1.1374
  129DG      H5 2949   1.594   3.152   4.970 -0.2459  0.4647 -0.0667
  129DG      H6 2950   2.169   3.195   4.836 -2.4010 -0.9450 -0.1497
  129DG      H7 2951   2.309   3.119   4.916  0.9501  0.4940 -0.3461
  129DG      H8 2952   2.226   3.032   4.783  1.8779  0.7308  0.3777
  129DG      O9 2953   1.732   3.034   5.075  0.2644 -0.1245 -1.0316
  129DG     O10 2954   2.121   3.046   4.966 -0.7348  0.5548 -0.0628
  129DG     C11 2955   1.744   2.942   5.182 -0.5924 -0.6906 -0.5094
  129DG     C12 2956   2.150   2.910   5.001  0.0916 -0.2669 -0.3511
  129DG     H13 2957   1.700   2.847   5.150 -1.0906 -0.0516 -1.8085
  129DG     H14 2958   1.679   2.966   5.266  1.3803  0.7817  0.6877
  129DG     H15 2959   2.255   2.891   5.019  0.6781  0.7501 -2.4149
  129DG     H16 2960   2.128   2.839   4.921  0.4881 -0.0057 -0.6927
  129DG     C17 2961   1.882   2.930   5.229  0.0686 -0.7025 -0.1992
  129DG     C18 2962   2.078   2.870   5.126  0.6074 -0.4005 -0.0594
  129DG     O19 2963   1.944   2.896   5.113  0.0739 -0.2392 -0.2684
  129DG     H20 2964   1.892   2.850   5.303 -0.2874 -0.6229 -0.0644
  129DG     H21 2965   1.908   3.021   5.282 -2.1358 -1.3836  2.2374
  129DG     H22 2966   2.085   2.761   5.126 -1.3631 -0.6463 -2.8848
  129DG     H23 2967   2.134   2.911   5.210 -0.4313 -1.7143  1.3337
  130DG      C1 2968   3.864   1.647   0.768 -0.0154 -0.1976  0.4119
  130DG      C2 2969   3.353   1.801   0.331  0.0911 -0.4888  0.0589
  130DG      H3 2970   3.885   1.606   0.867  1.6423 -1.1675 -0.2921
  130DG      H4 2971   3.888   1.752   0.779  1.5184 -0.4972  0.1545
  130DG      H5 2972   3.942   1.606   0.703 -0.8434  0.5040 -1.0917
  130DG      H6 2973   3.309   1.888   0.380  0.5497  0.4143 -1.0740
  130DG      H7 2974   3.433   1.846   0.273 -1.9398  0.6041 -2.1068
  130DG      H8 2975   3.276   1.762   0.264 -0.0588 -2.8756  1.4945
  130DG      O9 2976   3.734   1.620   0.730  0.1391  0.2258  0.4673
  130DG     O10 2977   3.407   1.706   0.432 -0.2794  0.1895 -0.0775
  130DG     C11 2978   3.710   1.477   0.733  0.5900 -0.5994  0.2430
  130DG     C12 2979   3.397   1.571   0.390  0.8747  0.0404  0.7235
  130DG     H13 2980   3.722   1.428   0.830  0.2997 -1.7360 -0.2726
  130DG     H14 2981   3.778   1.427   0.665  1.6173 -0.4655  1.1402
  130DG     H15 2982   3.475   1.543   0.319  0.8697  3.4858 -0.8595
  130DG     H16 2983   3.312   1.537   0.331  0.9788  2.2937 -0.8762
  130DG     C17 2984   3.568   1.447   0.689 -0.5583  0.6694  0.3623
  130DG     C18 2985   3.412   1.480   0.508 -0.6058  0.1676  0.5337
  130DG     O19 2986   3.540   1.502   0.562  0.1952 -0.3454  0.2024
  130DG     H20 2987   3.491   1.485   0.757 -0.1719  1.1915  0.5147
  130DG     H21 2988   3.560   1.338   0.683 -1.9238  0.7950 -0.3325
  130DG     H22 2989   3.329   1.502   0.575 -1.9090 -2.6731 -0.0071
  130DG     H23 2990   3.401   1.373   0.490  0.8075  0.0276  0.4307
  131DG      C1 2991   3.746   5.185   3.638  0.0729 -0.7021  0.2135
  131DG      C2 2992   4.287   4.792   3.859  0.7080  0.0061  0.3321
  131DG      H3 2993   3.794   5.282   3.655  0.3306 -1.3422  3.8524
  131DG      H4 2994   3.641   5.206   3.616  0.9138  1.3190 -2.4595
  131DG      H5 2995   3.788   5.154   3.542  1.4881 -0.2915  0.6828
  131DG      H6 2996   4.340   4.746   3.942 -0.5604 -3.1569 -0.4771
  131DG      H7 2997   4.316   4.737   3.769 -1.7547 -0.0805 -0.4689
  131DG      H8 2998   4.323   4.893   3.838 -0.5517  0.5872  0.8794
  131DG      O9 2999   3.781   5.086   3.730  0.2091 -0.2034  0.4019
  131DG     O10 3000   4.151   4.795   3.891 -0.0056  0.0249  0.6467
  131DG     C11 3001   3.723   5.110   3.862  0.2940 -0.4994  0.8739
  131DG     C12 3002   4.112   4.874   3.997 -0.3649  0.0778 -0.5276
  131DG     H13 3003   3.617   5.134   3.855  0.8125  2.8722  2.6140
  131DG     H14 3004   3.768   5.197   3.909 -0.9518 -1.7519  4.7856
  131DG     H15 3005   4.154   4.974   3.990 -1.7018  0.7134  0.1305
  131DG     H16 3006   4.164   4.828   4.081  0.1319  0.7814 -0.4417
  131DG     C17 3007   3.763   4.991   3.946 -0.3976  0.3143  0.2061
  131DG     C18 3008   3.963   4.882   4.027  0.2832 -0.2125 -0.2501
  131DG     O19 3009   3.909   4.969   3.933 -0.2852  0.1104  0.3783
  131DG     H20 3010   3.702   4.907   3.912  0.9814 -0.2570 -0.9581
  131DG     H21 3011   3.741   5.018   4.049  1.8049  0.7814  0.5996
  131DG     H22 3012   3.925   4.780   4.020 -0.2587 -0.0594  0.2748
  131DG     H23 3013   3.931   4.918   4.125 -0.4791 -0.9467 -0.2057
  132DG      C1 3014   5.069   4.229   2.065  0.0736 -0.3151  0.3833
  132DG      C2 3015   4.977   3.590   2.357  0.1999  0.6705  0.6120
  132DG      H3 3016   5.142   4.167   2.013  0.0494  0.3634 -0.4723
  132DG      H4 3017   5.123   4.315   2.105  0.2963  0.2704 -1.1285
  132DG      H5 3018   5.004   4.265   1.986 -0.9818 -0.1406  1.3022
  132DG      H6 3019   5.056   3.570   2.429 -0.4583 -0.5172  1.0502
  132DG      H7 3020   4.901   3.513   2.376  0.7733 -0.3803 -1.1640
  132DG      H8 3021   5.010   3.549   2.262  1.5750 -1.2841  1.8446
  132DG      O9 3022   5.003   4.146   2.164 -0.6771 -0.1529  0.2142
  132DG     O10 3023   4.917   3.711   2.341  0.2696 -1.2125 -0.2345
  132DG     C11 3024   4.913   4.205   2.253  0.0517  0.4971  0.4320
  132DG     C12 3025   4.868   3.766   2.462  0.4218  0.2623 -0.2278
  132DG     H13 3026   4.848   4.279   2.206  0.6930  1.5596  1.1832
  132DG     H14 3027   4.971   4.260   2.326  1.3830 -1.4121  0.8988
  132DG     H15 3028   4.945   3.800   2.532  0.8077  0.4617 -0.7462
  132DG     H16 3029   4.797   3.700   2.511 -0.2701  0.6297 -0.7141
  132DG     C17 3030   4.824   4.104   2.319 -0.3993  0.7171 -0.4807
  132DG     C18 3031   4.799   3.894   2.430  0.2454  0.5943 -0.5236
  132DG     O19 3032   4.886   3.977   2.350 -0.3378  0.4027 -0.2293
  132DG     H20 3033   4.730   4.086   2.265 -0.5414  0.3908 -0.1333
  132DG     H21 3034   4.788   4.159   2.406  3.8634  2.9383  0.1119
  132DG     H22 3035   4.707   3.868   2.377 -1.1840 -0.1070  2.0844
  132DG     H23 3036   4.765   3.943   2.521 -1.3927 -1.6312  0.1662
  133DG      C1 3037   4.019   1.276   1.110  0.1976 -0.4304  0.1419
  133DG      C2 3038   3.867   0.578   1.121 -0.2285 -0.6805  0.0450
  133DG      H3 3039   3.968   1.269   1.206 -2.8414  0.6089 -1.3048
  133DG      H4 3040   3.992   1.362   1.049 -0.9898 -1.2357 -0.5105
  133DG      H5 3041   4.127   1.280   1.124 -0.0004 -1.1258  2.2454
  133DG      H6 3042   3.894   0.499   1.052  0.5434 -1.1948  0.9135
  133DG      H7 3043   3.955   0.604   1.179 -0.0525 -0.6727 -0.2265
  133DG      H8 3044   3.782   0.560   1.188  0.8071 -0.0024  1.5853
  133DG      O9 3045   3.989   1.163   1.036 -0.6652 -0.1277  0.3876
  133DG     O10 3046   3.838   0.698   1.054 -0.7248 -0.2251  0.5051
  133DG     C11 3047   3.859   1.159   0.985  0.6545 -0.7776  0.3928
  133DG     C12 3048   3.715   0.710   0.968 -0.6165  0.1598 -0.9443
  133DG     H13 3049   3.834   1.263   0.961 -0.4014 -1.0493  0.2503
  133DG     H14 3050   3.799   1.129   1.071 -0.1801  1.2610  0.5803
  133DG     H15 3051   3.626   0.680   1.024  0.9302 -0.5990  1.2659
  133DG     H16 3052   3.724   0.653   0.875  0.4436  0.4682 -1.0474
  133DG     C17 3053   3.828   1.058   0.865  0.0002  0.2122 -0.5571
  133DG     C18 3054   3.708   0.863   0.942  0.2454  0.5105  0.1513
  133DG     O19 3055   3.834   0.915   0.903  0.0922 -1.0080 -0.2488
  133DG     H20 3056   3.902   1.074   0.787  0.8739 -0.7151  0.0611
  133DG     H21 3057   3.735   1.088   0.816 -0.9872 -0.9237  0.5475
  133DG     H22 3058   3.644   0.876   0.855 -0.8603 -0.7023  0.7398
  133DG     H23 3059   3.654   0.917   1.020 -0.6855  0.0411 -0.1407
  134DG      C1 3060   0.060   0.988   0.790 -0.1517 -0.0198 -0.2887
  134DG      C2 3061   0.310   1.346   1.074 -0.0782 -0.0973  0.8773
  134DG      H3 3062   0.138   1.048   0.836  1.4636 -2.9018  0.9510
  134DG      H4 3063   0.101   0.887   0.799 -2.9748 -1.2162  0.4434
  134DG      H5 3064  -0.022   0.973   0.860 -1.4347 -1.2717 -1.9680
  134DG      H6 3065   0.391   1.278   1.103 -0.9522 -2.1307 -1.1127
  134DG      H7 3066   0.317   1.449   1.109  0.8274  1.0743 -2.3944
  134DG      H8 3067   0.223   1.297   1.118  0.0864 -0.1733  1.1202
  134DG      O9 3068   0.027   1.013   0.655  0.3168  0.3166  0.4347
  134DG     O10 3069   0.299   1.349   0.929  0.0809 -0.7919  0.5739
  134DG     C11 3070  -0.063   1.126   0.643 -0.0501 -0.2005 -0.2851
  134DG     C12 3071   0.188   1.428   0.884  0.3456 -0.0730 -0.1952
  134DG     H13 3072  -0.118   1.127   0.737  0.3097 -3.7045  0.0637
  134DG     H14 3073  -0.130   1.113   0.559  1.7358 -3.0855 -1.3789
  134DG     H15 3074   0.215   1.533   0.884  0.3426 -0.0559  1.1179
  134DG     H16 3075   0.098   1.398   0.938  1.2079 -0.8845  0.8222
  134DG     C17 3076   0.020   1.254   0.622  0.0435  0.0709  0.3588
  134DG     C18 3077   0.154   1.403   0.737  0.5154 -0.1721 -0.0033
  134DG     O19 3078   0.106   1.274   0.728 -0.1144  0.0370 -0.2945
  134DG     H20 3079  -0.047   1.340   0.619 -0.7514 -0.5178  0.7279
  134DG     H21 3080   0.076   1.241   0.530 -0.7528  0.9892 -0.2791
  134DG     H22 3081   0.078   1.476   0.710  2.5879  2.4612  0.8017
  134DG     H23 3082   0.245   1.419   0.679  0.1449  2.3640 -0.0242
  135DG      C1 3083   4.037   2.735   2.461 -0.1000  0.1244 -0.4679
  135DG      C2 3084   3.966   2.545   3.104 -0.0445  0.0794  0.5122
  135DG      H3 3085   4.050   2.709   2.356  1.7568  0.7333 -0.4254
  135DG      H4 3086   4.127   2.784   2.496 -1.7606  1.3417  2.4656
  135DG      H5 3087   3.959   2.810   2.451 -0.6885 -0.6469 -2.0356
  135DG      H6 3088   3.998   2.641   3.145 -0.1147 -0.2568  1.3797
  135DG      H7 3089   3.858   2.546   3.086  0.3267 -0.1233 -2.1223
  135DG      H8 3090   3.985   2.471   3.181 -3.0517  0.1078  1.4021
  135DG      O9 3091   4.016   2.616   2.538  0.0483  0.4317 -0.0592
  135DG     O10 3092   4.031   2.509   2.982  0.8632 -0.6252  0.3013
  135DG     C11 3093   4.109   2.506   2.516 -0.5177 -0.0937  0.0077
  135DG     C12 3094   4.004   2.374   2.951 -0.4254 -0.5718 -0.4396
  135DG     H13 3095   4.199   2.541   2.566 -1.6684  2.1555  0.6327
  135DG     H14 3096   4.132   2.481   2.412 -2.6390 -0.5520 -0.4076
  135DG     H15 3097   3.896   2.375   2.936 -0.0957  0.1308 -3.2209
  135DG     H16 3098   4.045   2.306   3.026 -1.9229 -2.1718 -0.9915
  135DG     C17 3099   4.082   2.392   2.605  0.4592  0.2258  0.2701
  135DG     C18 3100   4.081   2.344   2.826  0.3683 -0.3508 -0.3596
  135DG     O19 3101   4.028   2.438   2.729  0.2590  0.4917  0.2967
  135DG     H20 3102   4.177   2.342   2.627 -0.1348  0.2048  3.2597
  135DG     H21 3103   4.015   2.323   2.554 -0.0937  1.8745 -1.3322
  135DG     H22 3104   4.187   2.362   2.845  0.3906  0.5779 -1.2668
  135DG     H23 3105   4.077   2.236   2.810  0.4126 -0.0722 -2.5351
  136DG      C1 3106   4.740   2.203   3.571 -0.3238  0.1346 -0.3077
  136DG      C2 3107   5.129   2.605   3.933 -0.2398  0.2020  0.4958
  136DG      H3 3108   4.662   2.278   3.587 -0.6740 -0.4214  0.7207
  136DG      H4 3109   4.737   2.117   3.639 -0.6110  0.3084 -0.0946
  136DG      H5 3110   4.716   2.164   3.472 -1.0231  1.6353 -0.7540
  136DG      H6 3111   5.034   2.650   3.962 -1.5927 -1.9350 -0.3834
  136DG      H7 3112   5.150   2.537   4.016 -0.2777 -1.7109 -0.9893
  136DG      H8 3113   5.210   2.677   3.935 -1.6552  1.8381  1.4866
  136DG      O9 3114   4.871   2.260   3.576  0.6091 -0.2846 -0.3278
  136DG     O10 3115   5.111   2.530   3.811  0.8744 -0.3392  0.5201
  136DG     C11 3116   4.964   2.169   3.537 -0.1012  0.7669 -0.9318
  136DG     C12 3117   5.226   2.453   3.791 -0.1295 -0.3864 -0.5529
  136DG     H13 3118   4.949   2.130   3.436  1.7910  0.9346 -1.3274
  136DG     H14 3119   4.987   2.089   3.607  1.0523  1.0444 -0.9658
  136DG     H15 3120   5.243   2.379   3.869  1.0583 -0.5591 -0.9550
  136DG     H16 3121   5.314   2.517   3.797 -0.5678  0.1806  0.0651
  136DG     C17 3122   5.094   2.244   3.527 -0.1700 -0.9303 -0.0668
  136DG     C18 3123   5.232   2.393   3.652 -0.4415  0.1360 -0.1032
  136DG     O19 3124   5.116   2.306   3.652 -0.2629 -0.8056  0.2863
  136DG     H20 3125   5.082   2.324   3.453 -1.2007  0.4997  1.5519
  136DG     H21 3126   5.180   2.181   3.507  1.0397  0.5459  0.2394
  136DG     H22 3127   5.218   2.466   3.573 -2.2529 -0.1370 -0.0958
  136DG     H23 3128   5.323   2.336   3.631 -0.6548 -0.0506 -0.5430
  137DG      C1 3129   1.142   1.926   4.855  0.9662 -0.0161 -0.4326
  137DG      C2 3130   0.357   2.276   5.119  0.9759  0.4237 -0.7076
  137DG      H3 3131   1.244   1.915   4.891  0.6443  3.3734  2.0059
  137DG      H4 3132   1.161   2.013   4.791  0.6956 -0.9239 -1.7944
  137DG      H5 3133   1.109   1.855   4.779 -2.4042  1.2924 -0.3599
  137DG      H6 3134   0.310   2.272   5.218 -0.1996  3.0760 -1.0771
  137DG      H7 3135   0.367   2.382   5.100  1.8282  0.2090 -1.4864
  137DG      H8 3136   0.288   2.239   5.043  1.2379 -0.3285 -0.5925
  137DG      O9 3137   1.060   1.951   4.962  0.3682  0.4366  0.4996
  137DG     O10 3138   0.491   2.217   5.124  0.4062 -0.4452 -0.3648
  137DG     C11 3139   0.920   1.957   4.933 -0.6618  0.3466 -0.0558
  137DG     C12 3140   0.505   2.075   5.142  0.0936  0.3518 -0.0246
  137DG     H13 3141   0.889   1.862   4.890  0.0987 -0.8026  1.8274
  137DG     H14 3142   0.903   2.035   4.858  0.2392  0.2121 -0.4167
  137DG     H15 3143   0.460   2.020   5.059 -0.2495 -0.2675  0.5586
  137DG     H16 3144   0.441   2.034   5.220  1.3319 -0.3769  0.6486
  137DG     C17 3145   0.848   1.962   5.062  0.3827  0.1842 -0.5405
  137DG     C18 3146   0.649   2.035   5.166  0.2059 -0.0533  0.1142
  137DG     O19 3147   0.710   1.997   5.046  0.3307  0.0264  0.4232
  137DG     H20 3148   0.883   2.026   5.143 -0.6890  0.5303 -0.3448
  137DG     H21 3149   0.854   1.859   5.096 -0.4171  0.0842 -0.6987
  137DG     H22 3150   0.701   2.125   5.199 -0.6151  0.3944  0.2061
  137DG     H23 3151   0.667   1.955   5.238  1.8197 -0.8301 -1.0973
  138DG      C1 3152   0.570   3.835   1.215 -0.6917 -0.0681 -0.0684
  138DG      C2 3153   0.981   3.536   1.681 -0.0266  0.3678 -0.7939
  138DG      H3 3154   0.656   3.902   1.215 -0.1143 -0.7840  0.6197
  138DG      H4 3155   0.481   3.897   1.204 -1.7288 -0.6648  3.5175
  138DG      H5 3156   0.601   3.773   1.131 -0.6955 -0.4848  0.2331
  138DG      H6 3157   1.020   3.634   1.710  2.3100 -1.2146  1.9619
  138DG      H7 3158   0.984   3.476   1.771 -1.5474  0.4541 -0.6561
  138DG      H8 3159   1.052   3.502   1.606  0.9128  3.0180 -1.2059
  138DG      O9 3160   0.563   3.761   1.333  0.5576 -0.2794 -0.6155
  138DG     O10 3161   0.851   3.541   1.618 -0.8724  0.1531 -0.2351
  138DG     C11 3162   0.475   3.647   1.319  0.0684  0.4977 -0.5102
  138DG     C12 3163   0.808   3.410   1.581 -0.0080 -0.3402  0.4409
  138DG     H13 3164   0.515   3.591   1.234 -1.7586  0.2140 -1.2295
  138DG     H14 3165   0.372   3.677   1.301 -0.4581  0.6472  2.4136
  138DG     H15 3166   0.832   3.339   1.660  4.1019  2.5092  2.0984
  138DG     H16 3167   0.870   3.383   1.496 -1.8180  1.2532 -1.4943
  138DG     C17 3168   0.491   3.557   1.448 -0.4750 -0.2380 -0.2568
  138DG     C18 3169   0.655   3.412   1.543 -0.5304 -0.9958  0.5286
  138DG     O19 3170   0.627   3.528   1.461  0.4532  0.0382  0.2239
  138DG     H20 3171   0.428   3.469   1.455  2.0240 -1.9500  4.2257
  138DG     H21 3172   0.455   3.602   1.540  1.8503  1.6522 -0.1903
  138DG     H22 3173   0.628   3.323   1.486 -2.9513  0.3219 -0.5254
  138DG     H23 3174   0.586   3.398   1.626  0.8738 -1.4590  1.6623
  139DG      C1 3175   4.680   0.768   1.594  0.4790  0.1911 -0.3786
  139DG      C2 3176   4.596   0.615   0.751 -0.2281 -0.0241  0.0212
  139DG      H3 3177   4.734   0.779   1.688  0.9118 -1.1388 -0.4560
  139DG      H4 3178   4.666   0.660   1.592  2.0609 -0.0258 -1.6486
  139DG      H5 3179   4.585   0.819   1.609  0.1445 -0.0251 -1.6514
  139DG      H6 3180   4.604   0.506   0.746  0.1380 -0.1741  2.4309
  139DG      H7 3181   4.493   0.642   0.776 -0.0770  2.6159 -1.8763
  139DG      H8 3182   4.592   0.659   0.652 -0.5109 -1.0320 -0.4344
  139DG      O9 3183   4.734   0.828   1.484  0.2910 -0.1336  0.1593
  139DG     O10 3184   4.700   0.661   0.842 -0.2233  0.2377 -0.2221
  139DG     C11 3185   4.692   0.787   1.358  0.5402  0.3896 -0.4551
  139DG     C12 3186   4.672   0.790   0.870  0.7629  0.0009  0.0536
  139DG     H13 3187   4.583   0.782   1.357  0.5219  0.8089 -0.6033
  139DG     H14 3188   4.732   0.685   1.349 -0.1404  0.1932 -1.3937
  139DG     H15 3189   4.564   0.793   0.889  0.5211 -2.6807 -0.4752
  139DG     H16 3190   4.693   0.853   0.783 -0.6973  0.9505  0.3484
  139DG     C17 3191   4.721   0.872   1.236  0.3393  0.3096  0.7528
  139DG     C18 3192   4.735   0.850   1.000 -0.0705  0.9352  0.4076
  139DG     O19 3193   4.682   0.792   1.120 -0.4501  0.1441 -0.0710
  139DG     H20 3194   4.824   0.906   1.222 -0.0059  1.0865  0.0176
  139DG     H21 3195   4.661   0.963   1.240  0.2327  0.3464 -1.1898
  139DG     H22 3196   4.843   0.840   1.004 -0.1425 -1.7454 -1.8937
  139DG     H23 3197   4.718   0.958   1.003 -0.3879  0.9126 -0.4918
  140DG      C1 3198   2.678   3.380   3.716  0.1509 -0.0232 -0.6254
  140DG      C2 3199   3.295   3.222   3.942 -0.0217  0.4107 -0.5628
  140DG      H3 3200   2.620   3.465   3.680 -0.2376  0.2235  0.5285
  140DG      H4 3201   2.610   3.304   3.753 -0.6322  1.0103  0.1039
  140DG      H5 3202   2.719   3.343   3.622  0.7281  2.1288 -1.2978
  140DG      H6 3203   3.358   3.149   3.992 -0.6785 -1.3234 -2.1290
  140DG      H7 3204   3.297   3.180   3.842  1.1401 -2.7978  0.6970
  140DG      H8 3205   3.328   3.326   3.940  1.3571  0.0175  0.2795
  140DG      O9 3206   2.781   3.401   3.816 -0.1857 -0.2805  0.4413
  140DG     O10 3207   3.160   3.212   3.995 -0.6511 -0.2597 -0.7226
  140DG     C11 3208   2.737   3.475   3.924 -0.3062  0.4253  0.4873
  140DG     C12 3209   3.145   3.288   4.117 -0.0872  0.2636  0.1898
  140DG     H13 3210   2.668   3.422   3.989 -1.3031 -0.8260 -1.4803
  140DG     H14 3211   2.696   3.573   3.899 -0.6285  0.1361 -0.1309
  140DG     H15 3212   3.242   3.293   4.167  0.0922  2.5820 -0.2391
  140DG     H16 3213   3.097   3.229   4.194  1.8435 -1.4046  0.1794
  140DG     C17 3214   2.867   3.505   4.000 -0.2117  0.1132 -0.5712
  140DG     C18 3215   3.072   3.424   4.090  0.0175  0.1147  0.3197
  140DG     O19 3216   2.964   3.399   3.996  0.6507  0.4239 -0.0406
  140DG     H20 3217   2.845   3.522   4.105  0.2132 -0.2831 -0.4123
  140DG     H21 3218   2.910   3.601   3.973 -1.3004  0.1094 -2.5003
  140DG     H22 3219   3.035   3.456   4.187 -3.9978 -0.4027 -0.8473
  140DG     H23 3220   3.139   3.499   4.048  0.5506 -0.5953 -0.1197
  141DG      C1 3221   0.655   4.864   0.502 -0.3128  1.3001 -0.5326
  141DG      C2 3222   1.320   4.431   0.742  0.0889  0.1666 -0.6373
  141DG      H3 3223   0.717   4.859   0.412  1.1477 -0.8918  0.5193
  141DG      H4 3224   0.676   4.949   0.567 -4.7606  1.7355  0.6538
  141DG      H5 3225   0.554   4.892   0.471 -0.8296  1.5064  1.2261
  141DG      H6 3226   1.335   4.390   0.642 -0.6476 -1.5750 -0.0743
  141DG      H7 3227   1.399   4.504   0.760 -0.8556  0.8770  0.8408
  141DG      H8 3228   1.332   4.349   0.812 -0.1102  0.1653 -0.6026
  141DG      O9 3229   0.654   4.738   0.570  0.0143 -0.4382 -0.3705
  141DG     O10 3230   1.192   4.487   0.761 -0.5016  0.1219 -0.2388
  141DG     C11 3231   0.786   4.701   0.605 -0.9468 -0.6140 -0.1320
  141DG     C12 3232   1.102   4.382   0.766 -0.0841  1.0526 -0.3209
  141DG     H13 3233   0.851   4.778   0.647  1.1484 -2.4958  0.2169
  141DG     H14 3234   0.834   4.687   0.508  1.1051  0.4388  0.6692
  141DG     H15 3235   1.125   4.321   0.854  0.0582 -0.0654 -1.1171
  141DG     H16 3236   1.104   4.324   0.674  1.6083 -0.7407  0.7777
  141DG     C17 3237   0.795   4.578   0.687  0.3328 -0.4185  0.3286
  141DG     C18 3238   0.965   4.445   0.789  0.5818  0.1156  0.0610
  141DG     O19 3239   0.915   4.509   0.669 -0.0746 -0.3904  0.0299
  141DG     H20 3240   0.719   4.513   0.643  0.3237  1.2810 -2.3987
  141DG     H21 3241   0.762   4.587   0.791 -1.0893 -1.8723  0.0368
  141DG     H22 3242   0.887   4.372   0.808  1.3176 -1.8085 -3.4882
  141DG     H23 3243   0.967   4.517   0.871 -0.1739  1.6559 -1.2182
  142DG      C1 3244   0.147   4.404   1.366  0.4473 -0.5115  0.5332
  142DG      C2 3245  -0.449   4.470   0.783  0.2771  0.1396 -0.3278
  142DG      H3 3246   0.246   4.376   1.330  0.4770  0.0719  0.1444
  142DG      H4 3247   0.120   4.335   1.446  0.1079  0.4592  1.2698
  142DG      H5 3248   0.160   4.503   1.409 -0.3329 -0.5146  0.8012
  142DG      H6 3249  -0.457   4.552   0.855 -1.6265  2.1050 -2.5893
  142DG      H7 3250  -0.497   4.494   0.688  0.8685  0.2730 -0.5963
  142DG      H8 3251  -0.510   4.386   0.816 -0.0122  0.7643  0.7631
  142DG      O9 3252   0.046   4.403   1.265 -0.0950 -0.7662 -0.1218
  142DG     O10 3253  -0.321   4.424   0.751  0.0793  0.2878  0.1388
  142DG     C11 3254  -0.001   4.276   1.236  0.3138  0.1212  0.8742
  142DG     C12 3255  -0.226   4.458   0.845  0.4098 -0.3869  0.1328
  142DG     H13 3256  -0.009   4.217   1.328  1.1846 -1.9206 -0.3032
  142DG     H14 3257   0.060   4.226   1.162  1.3942  0.9600  1.1757
  142DG     H15 3258  -0.225   4.564   0.869  0.5102 -0.1450 -0.8979
  142DG     H16 3259  -0.126   4.450   0.802  1.2656  1.7293  1.5811
  142DG     C17 3260  -0.131   4.294   1.164  0.0346 -0.3326  0.7346
  142DG     C18 3261  -0.236   4.366   0.971  0.6910 -0.2764  0.3142
  142DG     O19 3262  -0.123   4.376   1.050 -0.6609 -0.1866  0.1352
  142DG     H20 3263  -0.203   4.329   1.238 -0.7077  0.0618 -0.1455
  142DG     H21 3264  -0.166   4.194   1.136 -0.8300  0.4044 -1.0259
  142DG     H22 3265  -0.322   4.409   1.021 -0.5005 -0.3065 -1.6131
  142DG     H23 3266  -0.262   4.263   0.949  0.2659 -0.2893  0.8575
  143DG      C1 3267   4.101   2.106   2.340  0.3803  0.1667 -0.1178
  143DG      C2 3268   4.341   1.581   2.034 -0.3510 -0.1115 -0.0934
  143DG      H3 3269   4.093   2.212   2.364  0.6295  0.5822 -1.7704
  143DG      H4 3270   4.148   2.041   2.413 -1.7501  1.0635  2.2068
  143DG      H5 3271   4.003   2.061   2.326  0.3879  0.4539 -1.2186
  143DG      H6 3272   4.270   1.548   1.959 -0.7394 -4.5958  1.9147
  143DG      H7 3273   4.435   1.528   2.014 -0.0139 -0.3192  1.7847
  143DG      H8 3274   4.305   1.555   2.134 -0.9389  0.2077 -0.2197
  143DG      O9 3275   4.163   2.092   2.214 -0.0644  0.1680 -0.0020
  143DG     O10 3276   4.353   1.723   2.034  0.7413 -0.0442  0.2206
  143DG     C11 3277   4.294   2.151   2.199  0.5194 -0.0033 -0.2732
  143DG     C12 3278   4.414   1.787   1.924 -0.2909 -0.1556 -0.2229
  143DG     H13 3279   4.359   2.110   2.277  1.4913 -2.0204 -2.0394
  143DG     H14 3280   4.279   2.258   2.211 -1.1283 -0.2915  0.5803
  143DG     H15 3281   4.359   1.768   1.832 -0.4074  2.7598 -0.8343
  143DG     H16 3282   4.514   1.752   1.900 -0.2989  0.8895 -1.9515
  143DG     C17 3283   4.342   2.125   2.053  0.2836  0.8104  0.3443
  143DG     C18 3284   4.412   1.935   1.930  0.6030 -0.2852 -0.4108
  143DG     O19 3285   4.349   1.981   2.050  0.5726 -0.0327  0.2195
  143DG     H20 3286   4.436   2.180   2.049 -0.6731  2.5232  0.2532
  143DG     H21 3287   4.274   2.156   1.974 -1.6705  2.1693  2.4327
  143DG     H22 3288   4.510   1.982   1.929 -0.3956  2.0500  1.1091
  143DG     H23 3289   4.363   1.975   1.841 -0.7707  1.1322  0.8967
  144DG      C1 3290   4.953   2.796   0.864 -0.7416 -0.4493  0.0710
  144DG      C2 3291   5.590   2.692   1.081 -0.3689 -0.4163 -0.0672
  144DG      H3 3292   4.955   2.690   0.837 -0.3093 -0.0785 -1.4695
  144DG      H4 3293   4.880   2.852   0.804 -0.9373 -0.0870  0.6431
  144DG      H5 3294   4.931   2.790   0.970 -0.7508 -0.0253  0.0955
  144DG      H6 3295   5.576   2.594   1.036  2.1058 -0.6592 -0.4548
  144DG      H7 3296   5.697   2.713   1.085  0.0793 -2.3212 -0.9595
  144DG      H8 3297   5.554   2.694   1.184  1.1100 -0.6527  0.4769
  144DG      O9 3298   5.085   2.844   0.862 -0.6081  0.1003  0.3771
  144DG     O10 3299   5.532   2.796   1.014 -0.5550 -0.2659  0.2902
  144DG     C11 3300   5.092   2.988   0.884  0.4621  0.1679 -0.1311
  144DG     C12 3301   5.536   2.920   1.086 -0.1693 -0.2925 -0.4142
  144DG     H13 3302   5.034   3.006   0.975  0.6701 -0.8215  0.2110
  144DG     H14 3303   5.045   3.048   0.806  0.8673 -0.2590 -0.7083
  144DG     H15 3304   5.639   2.954   1.102  0.3725 -1.5951 -0.9066
  144DG     H16 3305   5.497   2.901   1.186 -0.1602  0.4849 -0.2626
  144DG     C17 3306   5.246   3.024   0.887  0.2597 -0.1993 -0.2547
  144DG     C18 3307   5.448   3.025   1.020  0.2711 -0.6102  0.2396
  144DG     O19 3308   5.319   2.961   0.992  0.5469 -0.2992 -0.1108
  144DG     H20 3309   5.247   3.132   0.892 -3.2616  0.3107 -4.4948
  144DG     H21 3310   5.297   3.014   0.792 -0.8657 -0.7777 -0.8276
  144DG     H22 3311   5.428   3.106   1.090 -0.4907  1.0234 -1.7753
  144DG     H23 3312   5.506   3.063   0.936  1.1054 -3.9300 -0.8405
  145DG      C1 3313   3.893   3.313   1.395 -0.2571 -0.0814 -0.3511
  145DG      C2 3314   4.405   3.783   0.888  0.6463  0.0779  0.1902
  145DG      H3 3315   3.828   3.399   1.410 -0.3311 -0.0926 -0.6151
  145DG      H4 3316   3.866   3.246   1.477 -2.6671  1.1186 -0.0700
  145DG      H5 3317   3.862   3.259   1.306 -0.5465 -1.3749  0.4930
  145DG      H6 3318   4.491   3.843   0.917 -0.4727  0.5948  2.6410
  145DG      H7 3319   4.439   3.743   0.792 -1.0197 -1.1699  0.0801
  145DG      H8 3320   4.316   3.847   0.890  0.8929  0.4386 -0.1752
  145DG      O9 3321   4.030   3.339   1.401 -0.4656 -0.4768 -0.1006
  145DG     O10 3322   4.395   3.681   0.985 -0.1241  0.4545 -0.2310
  145DG     C11 3323   4.072   3.431   1.301 -0.6441 -0.3437 -0.2824
  145DG     C12 3324   4.361   3.744   1.111 -0.4172 -0.2772  0.6568
  145DG     H13 3325   4.019   3.525   1.312  0.1421 -0.0154  0.8659
  145DG     H14 3326   4.032   3.392   1.207  1.2129 -0.3485 -1.1247
  145DG     H15 3327   4.276   3.812   1.110 -1.6302 -1.7338  1.3982
  145DG     H16 3328   4.433   3.825   1.125 -0.8888 -0.1585  2.7241
  145DG     C17 3329   4.225   3.457   1.294 -0.1082 -0.1239  0.1621
  145DG     C18 3330   4.362   3.639   1.220  0.3972 -0.1348 -0.0427
  145DG     O19 3331   4.239   3.567   1.212 -0.5167  0.4228  0.6367
  145DG     H20 3332   4.272   3.368   1.252  0.3722  0.5166 -0.6665
  145DG     H21 3333   4.265   3.473   1.394 -1.4034  0.5346  0.6016
  145DG     H22 3334   4.450   3.574   1.217 -0.0212 -0.7414 -3.3663
  145DG     H23 3335   4.372   3.693   1.314  1.9056  3.7522 -2.1771
  146DG      C1 3336   2.946   1.900   0.988  0.6021 -0.1580  0.1053
  146DG      C2 3337   2.328   2.041   0.960  0.4923 -1.0706  0.4872
  146DG      H3 3338   2.952   1.992   0.930 -0.3486 -0.3662 -0.3419
  146DG      H4 3339   2.920   1.816   0.923  2.1553  0.2403 -1.1126
  146DG      H5 3340   3.041   1.872   1.034  0.4112  1.1461  1.3824
  146DG      H6 3341   2.219   2.045   0.971  0.1348 -1.7676 -2.0978
  146DG      H7 3342   2.374   2.136   0.933 -1.7435  0.4055  1.4844
  146DG      H8 3343   2.358   1.977   0.877  0.0555 -0.7829  0.1023
  146DG      O9 3344   2.847   1.919   1.094  0.7703  0.4398 -0.0754
  146DG     O10 3345   2.398   1.991   1.077  0.0337  0.8184  0.1940
  146DG     C11 3346   2.885   2.021   1.189  0.1685  0.3759  0.5552
  146DG     C12 3347   2.422   2.103   1.160 -0.8737  0.1216 -0.5580
  146DG     H13 3348   2.914   2.112   1.136 -0.0888 -0.4645 -1.1094
  146DG     H14 3349   2.977   1.990   1.239  2.1615  0.5491 -2.6626
  146DG     H15 3350   2.333   2.138   1.212 -0.5346  0.0616  0.0646
  146DG     H16 3351   2.466   2.191   1.113  1.1914 -0.5207  0.0728
  146DG     C17 3352   2.770   2.057   1.284 -0.0949 -0.6247 -1.1028
  146DG     C18 3353   2.519   2.057   1.267 -0.3623  0.1312 -0.3173
  146DG     O19 3354   2.646   2.046   1.202 -0.3953  0.3819  0.1406
  146DG     H20 3355   2.787   2.157   1.323  4.2947 -2.1635  1.6869
  146DG     H21 3356   2.777   1.986   1.367  0.9955 -1.9710 -2.3094
  146DG     H22 3357   2.526   2.131   1.347 -0.5692  1.3162 -1.3573
  146DG     H23 3358   2.483   1.965   1.312 -0.9451  0.3246 -0.3816
  147DG      C1 3359   0.867   3.012   0.126 -0.2919  0.0721  0.0611
  147DG      C2 3360   0.929   2.291   0.404  0.4589 -0.0338  0.3264
  147DG      H3 3361   0.882   3.049   0.228 -0.8928 -1.1998  0.6294
  147DG      H4 3362   0.771   3.049   0.090 -1.2281 -0.5566  1.8119
  147DG      H5 3363   0.942   3.053   0.058  0.1094 -1.2925 -0.3601
  147DG      H6 3364   1.017   2.310   0.465 -1.2320 -1.1576  3.3426
  147DG      H7 3365   0.839   2.310   0.462  0.0409 -0.3463 -0.2092
  147DG      H8 3366   0.938   2.187   0.372 -0.4595  0.0654 -0.3206
  147DG      O9 3367   0.873   2.875   0.123 -0.3317 -0.4642 -0.1491
  147DG     O10 3368   0.944   2.368   0.285 -0.2893 -0.3383  0.5604
  147DG     C11 3369   0.808   2.811   0.014 -0.6940 -0.3040  0.3253
  147DG     C12 3370   0.933   2.510   0.311  0.0593  0.5286  0.2942
  147DG     H13 3371   0.811   2.876  -0.074 -1.0153 -1.8483 -0.8649
  147DG     H14 3372   0.705   2.792   0.043  0.1145 -2.1882  2.2578
  147DG     H15 3373   1.008   2.535   0.386  1.9668 -1.0308 -0.9973
  147DG     H16 3374   0.834   2.547   0.338 -0.4492  0.2766 -1.1200
  147DG     C17 3375   0.865   2.669  -0.016 -0.8507 -0.2688  0.1573
  147DG     C18 3376   0.983   2.594   0.185  0.3961  0.5788  0.0111
  147DG     O19 3377   0.864   2.594   0.103 -0.1511 -0.2065 -0.0926
  147DG     H20 3378   0.965   2.661  -0.057 -0.1789 -0.6477  1.7806
  147DG     H21 3379   0.806   2.618  -0.092 -0.3290 -0.8496  0.1299
  147DG     H22 3380   1.016   2.694   0.212  1.5102  0.4647 -0.8552
  147DG     H23 3381   1.054   2.548   0.115 -1.6943  0.8250 -2.4180
  148DG      C1 3382   2.752   4.881   3.919 -0.5181 -0.4090 -0.6001
  148DG      C2 3383   3.296   4.929   4.131  0.2447  0.5777 -0.2265
  148DG      H3 3384   2.670   4.812   3.898 -0.2200 -0.6792 -0.8914
  148DG      H4 3385   2.818   4.908   3.837 -2.2572  0.7400 -1.6773
  148DG      H5 3386   2.702   4.975   3.943 -1.4742 -1.3005  1.1176
  148DG      H6 3387   3.291   4.961   4.027  0.2800  1.8351  0.1362
  148DG      H7 3388   3.328   5.022   4.179  2.0495 -0.2797  0.3015
  148DG      H8 3389   3.381   4.864   4.148  0.1746  0.7784  0.9523
  148DG      O9 3390   2.833   4.859   4.034  0.0368  0.2140  0.3423
  148DG     O10 3391   3.181   4.854   4.165 -0.7326 -0.4356 -0.0641
  148DG     C11 3392   2.761   4.844   4.149  0.1406 -0.5777 -0.1173
  148DG     C12 3393   3.184   4.806   4.300 -0.7704 -0.7664  0.4542
  148DG     H13 3394   2.694   4.758   4.159 -2.5681  1.2601 -1.2626
  148DG     H14 3395   2.690   4.927   4.151 -0.9011 -1.3952 -1.3460
  148DG     H15 3396   3.192   4.890   4.369 -0.9697  0.6874 -1.2336
  148DG     H16 3397   3.264   4.734   4.317 -0.0534  0.6221  3.7322
  148DG     C17 3398   2.872   4.850   4.250  0.4452 -0.5759 -0.6480
  148DG     C18 3399   3.065   4.719   4.319  0.0226  0.3467  0.6598
  148DG     O19 3400   2.961   4.740   4.224 -0.7126 -0.1718 -0.6554
  148DG     H20 3401   2.820   4.831   4.344 -0.7911  0.4019 -1.1167
  148DG     H21 3402   2.927   4.944   4.253 -0.4458 -0.0489 -0.5981
  148DG     H22 3403   3.092   4.616   4.296 -1.9279 -0.5421  2.1300
  148DG     H23 3404   3.027   4.712   4.421 -0.7238  0.8217  0.4143
  149DG      C1 3405   0.297   1.663   2.721  0.2000  0.1710  0.4201
  149DG      C2 3406   0.883   1.285   2.369  0.1112  0.6897  0.4169
  149DG      H3 3407   0.383   1.720   2.758 -1.0240  2.2275  0.2049
  149DG      H4 3408   0.244   1.606   2.798  0.3787 -0.2918  0.2034
  149DG      H5 3409   0.220   1.721   2.672  0.5420  1.0817  0.9284
  149DG      H6 3410   0.915   1.238   2.462 -1.1679 -0.6531  0.2156
  149DG      H7 3411   0.887   1.204   2.296  0.3912  0.5786  0.5520
  149DG      H8 3412   0.969   1.348   2.351  1.6728 -1.5582 -0.4624
  149DG      O9 3413   0.345   1.561   2.635 -0.1580  0.3112 -0.1626
  149DG     O10 3414   0.752   1.335   2.381 -0.2921  0.8736  0.1328
  149DG     C11 3415   0.396   1.609   2.509  0.1230  0.5253 -0.0596
  149DG     C12 3416   0.664   1.228   2.422  0.2141 -0.2126  0.1619
  149DG     H13 3417   0.491   1.655   2.538  0.7481 -1.0614  0.4964
  149DG     H14 3418   0.324   1.677   2.464 -1.4558 -1.0870 -0.0226
  149DG     H15 3419   0.677   1.188   2.522 -0.8364 -1.6342 -0.2394
  149DG     H16 3420   0.680   1.144   2.354  0.8957  0.2016 -0.2033
  149DG     C17 3421   0.412   1.484   2.414 -0.4435  0.3770  0.0474
  149DG     C18 3422   0.523   1.281   2.411  0.5453  0.4528 -0.1449
  149DG     O19 3423   0.507   1.400   2.485 -0.0997  0.0780 -0.7945
  149DG     H20 3424   0.456   1.519   2.321 -2.8484  1.4840 -0.7295
  149DG     H21 3425   0.323   1.427   2.390  0.4823 -0.4666 -1.5494
  149DG     H22 3426   0.505   1.298   2.305 -0.5212  1.6287  0.1949
  149DG     H23 3427   0.458   1.204   2.453  1.0800 -0.0203 -0.1702
  150DG      C1 3428   3.445   1.293   3.793  0.1600  1.0385  0.0799
  150DG      C2 3429   3.274   1.072   4.365  0.0105  0.6919  0.2925
  150DG      H3 3430   3.384   1.366   3.845 -1.1292 -0.2857  0.5104
  150DG      H4 3431   3.433   1.308   3.686 -1.6965  0.6208  0.1974
  150DG      H5 3432   3.544   1.321   3.827 -0.2332  2.9047 -0.1893
  150DG      H6 3433   3.219   1.108   4.278  0.3222  1.0724  0.2499
  150DG      H7 3434   3.210   1.012   4.430  0.7509 -1.6425 -1.0123
  150DG      H8 3435   3.304   1.162   4.418  0.5277  2.4314 -2.7704
  150DG      O9 3436   3.407   1.167   3.842 -1.0558  0.6610  0.1206
  150DG     O10 3437   3.391   1.011   4.310  0.5901  0.1840  0.1017
  150DG     C11 3438   3.272   1.119   3.842 -0.7673  0.0375  0.2585
  150DG     C12 3439   3.366   0.883   4.251  0.6504 -0.1956  0.1817
  150DG     H13 3440   3.253   1.110   3.735 -0.2295 -0.2002  0.1762
  150DG     H14 3441   3.203   1.199   3.870 -3.9299 -1.0339 -3.6023
  150DG     H15 3442   3.320   0.810   4.318  0.7936 -1.9418 -1.5289
  150DG     H16 3443   3.463   0.853   4.211  1.2519  1.7644  0.0811
  150DG     C17 3444   3.231   1.007   3.930  0.1945  0.1178  0.2082
  150DG     C18 3445   3.276   0.891   4.126  0.3068 -0.4253  0.2289
  150DG     O19 3446   3.315   1.005   4.049  0.9111  0.1736 -0.6661
  150DG     H20 3447   3.255   0.913   3.879  0.2923 -1.3799  2.8072
  150DG     H21 3448   3.126   1.025   3.951  0.1716  2.0787 -1.3319
  150DG     H22 3449   3.289   0.799   4.069  1.6295  1.2782 -2.4632
  150DG     H23 3450   3.168   0.900   4.136  0.2878  2.6949 -1.4272
  151DG      C1 3451   3.458   5.395   2.039  0.1121  0.3079 -0.4497
  151DG      C2 3452   3.243   5.693   2.583 -0.0946  0.0688  0.7915
  151DG      H3 3453   3.559   5.387   2.079 -0.4613 -2.4140  0.7016
  151DG      H4 3454   3.447   5.370   1.933 -1.3288  0.8370 -0.4504
  151DG      H5 3455   3.385   5.334   2.092 -1.3308  0.0614 -2.5934
  151DG      H6 3456   3.228   5.783   2.642 -0.5288  1.0237 -0.7059
  151DG      H7 3457   3.146   5.642   2.579 -0.4247  0.7247 -2.5227
  151DG      H8 3458   3.330   5.639   2.620 -0.0468  0.4735  1.2748
  151DG      O9 3459   3.416   5.526   2.071  0.0125 -0.3762 -0.5951
  151DG     O10 3460   3.257   5.728   2.451  0.2930 -0.7225  0.3900
  151DG     C11 3461   3.494   5.636   2.025 -0.0862 -0.3063  0.2122
  151DG     C12 3462   3.367   5.828   2.436  0.0693 -0.0840 -0.1038
  151DG     H13 3463   3.478   5.647   1.917  0.4870 -0.3916  0.1189
  151DG     H14 3464   3.599   5.630   2.052 -0.2964  1.0168  1.4319
  151DG     H15 3465   3.455   5.768   2.457  0.4035  1.0064  1.9569
  151DG     H16 3466   3.351   5.913   2.502  0.9871  0.3444 -0.4148
  151DG     C17 3467   3.435   5.759   2.092  0.1037 -0.1319  0.6495
  151DG     C18 3468   3.375   5.872   2.296 -0.1505 -0.1822 -0.0104
  151DG     O19 3469   3.431   5.758   2.234  0.2572 -0.2956 -0.1420
  151DG     H20 3470   3.334   5.753   2.050  0.5128 -0.6957 -0.2954
  151DG     H21 3471   3.476   5.851   2.051  0.5771 -0.5095  0.2710
  151DG     H22 3472   3.272   5.886   2.264 -0.4732 -2.2163  0.0507
  151DG     H23 3473   3.433   5.964   2.282  0.5518 -0.5034  0.6683
  152DG      C1 3474   3.093   5.468   2.025 -0.4502  0.2784  0.8325
  152DG      C2 3475   3.642   5.536   2.370  0.3016 -0.4771 -0.4510
  152DG      H3 3476   3.163   5.409   1.966 -2.2283 -1.4501  0.3362
  152DG      H4 3477   3.093   5.575   2.003 -1.5283 -0.1706 -1.7940
  152DG      H5 3478   2.987   5.445   2.012 -1.3473  3.5743  1.2902
  152DG      H6 3479   3.688   5.475   2.293 -0.5048 -2.0131  0.2354
  152DG      H7 3480   3.617   5.632   2.325 -0.4490 -0.5320 -0.1635
  152DG      H8 3481   3.725   5.550   2.438  0.4743  0.1904 -0.7948
  152DG      O9 3482   3.133   5.445   2.163  0.3343 -0.1504 -0.1759
  152DG     O10 3483   3.519   5.480   2.415  0.6880  0.0209  0.6402
  152DG     C11 3484   3.115   5.315   2.209  0.2467 -0.1051  0.4593
  152DG     C12 3485   3.522   5.346   2.463 -0.7042  0.3107 -0.2260
  152DG     H13 3486   3.157   5.243   2.138  1.2603  0.5862  0.3345
  152DG     H14 3487   3.009   5.294   2.212  0.4635 -1.1984  0.9526
  152DG     H15 3488   3.557   5.353   2.566 -1.4462  0.4296  0.0234
  152DG     H16 3489   3.575   5.282   2.393 -0.5039 -0.0362  0.2310
  152DG     C17 3490   3.176   5.285   2.346  0.1704 -0.3577 -0.7770
  152DG     C18 3491   3.380   5.296   2.472  0.0431  0.0601 -0.8067
  152DG     O19 3492   3.313   5.329   2.349 -0.2399  0.5526  0.2326
  152DG     H20 3493   3.167   5.179   2.369  0.1559  0.0360  1.2451
  152DG     H21 3494   3.118   5.333   2.426 -2.4595 -1.7242 -1.7432
  152DG     H22 3495   3.368   5.189   2.488 -2.1463  0.1934 -1.1328
  152DG     H23 3496   3.325   5.347   2.552  1.2616  1.3380 -0.7639
  153DG      C1 3497   3.969   1.365   4.355 -0.3330  0.0791 -0.1484
  153DG      C2 3498   3.393   1.814   4.507 -0.0259 -0.4746  0.5839
  153DG      H3 3499   4.010   1.401   4.449  0.3839  0.9145 -0.7684
  153DG      H4 3500   3.983   1.444   4.281 -1.1078 -0.7314 -1.1872
  153DG      H5 3501   4.026   1.275   4.333  0.3816  0.6291 -0.6085
  153DG      H6 3502   3.498   1.844   4.512 -0.3658  0.7809  0.5258
  153DG      H7 3503   3.352   1.863   4.420  0.0023  0.3780  1.0431
  153DG      H8 3504   3.333   1.826   4.597 -0.1353 -0.8439  0.5645
  153DG      O9 3505   3.826   1.342   4.351  0.3875 -0.3234 -0.8286
  153DG     O10 3506   3.395   1.675   4.466  0.0884 -0.0244 -0.1330
  153DG     C11 3507   3.776   1.286   4.478 -0.3259  0.4694  0.2312
  153DG     C12 3508   3.421   1.589   4.577 -0.5758  0.7371 -0.3881
  153DG     H13 3509   3.817   1.326   4.571  1.5812 -4.2491  1.7607
  153DG     H14 3510   3.797   1.180   4.493 -0.3411  0.1380 -1.8534
  153DG     H15 3511   3.330   1.593   4.637 -0.6937 -1.7968 -0.3059
  153DG     H16 3512   3.501   1.614   4.647  0.6318 -4.1548  0.3302
  153DG     C17 3513   3.626   1.303   4.484  0.0647  0.1928 -0.2733
  153DG     C18 3514   3.446   1.446   4.528  0.2724 -0.7990 -0.4368
  153DG     O19 3515   3.583   1.437   4.487 -0.0196 -0.6646  0.3770
  153DG     H20 3516   3.590   1.257   4.576  0.4735 -1.0487 -0.7105
  153DG     H21 3517   3.568   1.258   4.402  0.2525 -2.3372  0.8938
  153DG     H22 3518   3.418   1.376   4.608  1.2293 -0.2458  0.3934
  153DG     H23 3519   3.386   1.420   4.440 -1.8185 -0.5775  0.8429
  154DG      C1 3520   1.646   5.490   3.604  0.5946 -0.1910 -1.1658
  154DG      C2 3521   1.248   6.023   3.597  0.3363  0.6601  0.6648
  154DG      H3 3522   1.703   5.570   3.557 -0.2131  1.4930  0.6093
  154DG      H4 3523   1.597   5.437   3.522 -1.6695  0.9988 -0.6670
  154DG      H5 3524   1.716   5.417   3.647  0.7845 -0.3278 -1.6967
  154DG      H6 3525   1.212   5.984   3.502  0.9800 -0.7788  0.9967
  154DG      H7 3526   1.160   6.068   3.643  0.0783  1.2704 -0.3743
  154DG      H8 3527   1.325   6.098   3.580 -0.0786  1.2898  1.4788
  154DG      O9 3528   1.552   5.554   3.687 -0.9860  0.0835 -0.5313
  154DG     O10 3529   1.302   5.919   3.668 -0.7221 -0.3608  0.1535
  154DG     C11 3530   1.602   5.573   3.819 -0.6833 -0.1304  0.1394
  154DG     C12 3531   1.342   5.971   3.801 -0.6857 -0.3879  0.2981
  154DG     H13 3532   1.698   5.623   3.809 -0.6472 -0.1685  0.2891
  154DG     H14 3533   1.637   5.480   3.864  1.8006 -0.0203 -1.3752
  154DG     H15 3534   1.261   6.024   3.851 -0.4301  0.6388 -0.3447
  154DG     H16 3535   1.414   6.053   3.786 -1.9302  0.6914  0.0299
  154DG     C17 3536   1.523   5.663   3.914  0.3684 -0.7628  0.2171
  154DG     C18 3537   1.384   5.867   3.903  0.7266  0.7292  0.0932
  154DG     O19 3538   1.464   5.774   3.837 -0.1051 -0.4982 -0.0890
  154DG     H20 3539   1.595   5.708   3.982  1.1962  0.7090 -1.5287
  154DG     H21 3540   1.453   5.602   3.972 -1.3571  0.8810 -0.0058
  154DG     H22 3541   1.443   5.914   3.982 -0.3736 -0.7537  1.8819
  154DG     H23 3542   1.298   5.823   3.954 -0.1569 -0.2607 -2.1468
  155DG      C1 3543   0.114   0.178   2.758 -0.2284  0.0805 -0.3721
  155DG      C2 3544   0.419  -0.539   2.844 -0.5837 -0.5740 -0.1522
  155DG      H3 3545   0.165   0.274   2.750  1.9470 -1.0640 -0.9466
  155DG      H4 3546   0.014   0.183   2.801 -0.0899 -1.6274  0.2397
  155DG      H5 3547   0.108   0.135   2.658 -1.9558  1.7668 -1.0577
  155DG      H6 3548   0.333  -0.603   2.822 -1.0719 -2.1072  4.8532
  155DG      H7 3549   0.459  -0.506   2.749 -1.2223  1.7147  0.3207
  155DG      H8 3550   0.493  -0.603   2.893 -0.1309 -0.5962 -0.8484
  155DG      O9 3551   0.191   0.091   2.839  0.2527  0.0980  0.0730
  155DG     O10 3552   0.379  -0.418   2.897 -0.0644  0.5801 -0.1909
  155DG     C11 3553   0.137  -0.037   2.851  0.3207  0.4114 -0.4388
  155DG     C12 3554   0.486  -0.349   2.939 -0.5750 -0.5023  0.7802
  155DG     H13 3555   0.154  -0.099   2.763 -0.1750 -0.8169  0.3093
  155DG     H14 3556   0.033  -0.023   2.881  0.9214  0.6722  1.6573
  155DG     H15 3557   0.558  -0.333   2.859 -1.4744  1.8452  0.3618
  155DG     H16 3558   0.545  -0.392   3.021  1.0905  1.0104  0.4439
  155DG     C17 3559   0.218  -0.108   2.964  0.8147  0.1278 -0.0091
  155DG     C18 3560   0.429  -0.218   3.002 -0.2057 -0.1835  0.3586
  155DG     O19 3561   0.339  -0.158   2.909  0.5032 -0.5259  1.0476
  155DG     H20 3562   0.164  -0.199   2.993  1.5185 -0.3551 -0.1749
  155DG     H21 3563   0.237  -0.050   3.054  1.6486 -2.2472  1.4365
  155DG     H22 3564   0.374  -0.246   3.092  0.1987 -1.1809  0.3050
  155DG     H23 3565   0.505  -0.146   3.032  0.5146 -0.4509 -0.7714
  156DG      C1 3566   5.027   2.937   2.540  0.3134  0.0094 -0.1254
  156DG      C2 3567   4.679   2.513   2.162 -0.1620 -0.1714 -0.0918
  156DG      H3 3568   4.984   3.017   2.600 -2.4135  0.6508 -2.7356
  156DG      H4 3569   5.085   2.877   2.611 -1.1406 -1.2861  0.0272
  156DG      H5 3570   4.952   2.869   2.500  1.8863 -0.4833 -2.4090
  156DG      H6 3571   4.621   2.485   2.250 -0.1531  3.0642  1.0893
  156DG      H7 3572   4.604   2.523   2.083 -1.0926  2.2926  0.9714
  156DG      H8 3573   4.749   2.433   2.140 -0.4721 -0.8701  1.3218
  156DG      O9 3574   5.099   2.993   2.434  0.2966 -0.1371  0.2843
  156DG     O10 3575   4.743   2.638   2.197  0.1699 -0.4329 -0.6873
  156DG     C11 3576   5.165   2.902   2.339 -0.0689 -0.1099 -0.0289
  156DG     C12 3577   4.819   2.684   2.089  0.3979  0.5864  0.4566
  156DG     H13 3578   5.157   2.801   2.378 -0.2980  0.7798  2.4080
  156DG     H14 3579   5.264   2.945   2.321 -0.2912  0.2371 -0.4225
  156DG     H15 3580   4.759   2.679   1.999 -1.1070  2.0748  1.3247
  156DG     H16 3581   4.908   2.621   2.085  2.4449  3.2423  1.0168
  156DG     C17 3582   5.087   2.904   2.208 -0.8956  0.0796 -0.0005
  156DG     C18 3583   4.871   2.833   2.108  0.3405  0.4591 -0.6271
  156DG     O19 3584   4.960   2.838   2.218  0.0888  0.0647  0.0595
  156DG     H20 3585   5.147   2.862   2.127 -1.5693 -1.4284  0.2649
  156DG     H21 3586   5.080   2.999   2.154  1.1559 -1.0156 -2.4183
  156DG     H22 3587   4.913   2.891   2.026  1.1512 -0.8407 -1.1744
  156DG     H23 3588   4.787   2.894   2.141 -1.3411 -1.7624 -0.5876
  157DG      C1 3589   3.998   2.176   0.544  0.1280 -0.0540  0.1764
  157DG      C2 3590   3.665   2.289   0.003 -0.1791  0.0296  0.2144
  157DG      H3 3591   4.078   2.223   0.486 -0.4371  0.2168 -0.4034
  157DG      H4 3592   3.986   2.073   0.510 -0.2956 -1.4832  4.1552
  157DG      H5 3593   4.022   2.155   0.648 -3.3026 -0.8670  0.9062
  157DG      H6 3594   3.585   2.309  -0.068 -0.9398 -2.5992  0.2087
  157DG      H7 3595   3.749   2.354  -0.021 -0.1061 -0.1029  0.1098
  157DG      H8 3596   3.688   2.187  -0.027  0.6119  0.8004 -1.9504
  157DG      O9 3597   3.869   2.232   0.524  0.0886  0.0528  0.3998
  157DG     O10 3598   3.624   2.298   0.138 -0.2362  0.1038  0.6290
  157DG     C11 3599   3.856   2.367   0.558  0.0249 -0.0150 -0.5898
  157DG     C12 3600   3.566   2.423   0.182 -0.5561 -0.4259 -0.3233
  157DG     H13 3601   3.934   2.423   0.507 -0.5839  0.2471 -1.2472
  157DG     H14 3602   3.883   2.384   0.662  1.6101 -0.3536 -0.9261
  157DG     H15 3603   3.467   2.434   0.139  0.4405  2.6881 -2.1243
  157DG     H16 3604   3.622   2.511   0.149 -2.1875  0.8384  0.1725
  157DG     C17 3605   3.715   2.408   0.516  0.2125  0.2337 -0.1061
  157DG     C18 3606   3.559   2.421   0.335 -0.3226 -0.0203  0.1017
  157DG     O19 3607   3.698   2.403   0.373  0.1509  0.3464 -0.3967
  157DG     H20 3608   3.701   2.511   0.548  3.1962  0.7490 -0.2310
  157DG     H21 3609   3.641   2.336   0.550 -1.3010  0.4671 -2.6714
  157DG     H22 3610   3.514   2.510   0.378  0.0256  1.1059 -1.8026
  157DG     H23 3611   3.495   2.344   0.379 -1.7840  1.0743 -0.0470
  158DG      C1 3612   4.173   2.973   3.204 -0.2835 -0.3893 -0.2408
  158DG      C2 3613   3.648   2.473   3.258  0.1791  0.4709 -0.0625
  158DG      H3 3614   4.113   2.955   3.115 -0.2823 -0.8446 -0.1532
  158DG      H4 3615   4.276   2.937   3.203 -0.1850 -0.2841  1.6826
  158DG      H5 3616   4.176   3.079   3.227 -2.6058 -0.7789  2.4501
  158DG      H6 3617   3.584   2.559   3.240 -0.9363 -0.8429 -3.0693
  158DG      H7 3618   3.673   2.431   3.161 -0.5171 -1.2245  0.4646
  158DG      H8 3619   3.585   2.398   3.306  0.8528 -1.1339 -1.5798
  158DG      O9 3620   4.106   2.908   3.312  0.2375 -0.1113 -0.1782
  158DG     O10 3621   3.766   2.508   3.329 -0.0086  0.5890 -1.0758
  158DG     C11 3622   3.961   2.908   3.313 -0.7148  0.2173 -0.2744
  158DG     C12 3623   3.748   2.557   3.459  0.6621 -0.7207 -0.6846
  158DG     H13 3624   3.925   2.862   3.221  0.9782 -0.3515 -0.6995
  158DG     H14 3625   3.916   3.007   3.309  0.3244  0.6786 -1.0057
  158DG     H15 3626   3.702   2.485   3.527  1.7410  0.5534  1.5192
  158DG     H16 3627   3.678   2.639   3.446 -0.3270 -1.4131  0.1191
  158DG     C17 3628   3.919   2.829   3.437  0.5151  0.3129  0.1586
  158DG     C18 3629   3.882   2.601   3.509  0.5899 -0.1148 -1.0330
  158DG     O19 3630   3.950   2.689   3.416 -0.3267 -0.0523  0.1839
  158DG     H20 3631   3.810   2.833   3.448  0.5124  0.0756  0.2226
  158DG     H21 3632   3.956   2.869   3.531 -0.9497  0.6421  0.6244
  158DG     H22 3633   3.862   2.652   3.603  2.1413  1.6415 -1.5917
  158DG     H23 3634   3.941   2.515   3.542  1.9747  0.6044 -1.5535
  159DG      C1 3635   3.062   3.369   3.669 -0.0240  0.4017  0.1299
  159DG      C2 3636   2.605   3.142   4.010 -0.1059 -0.2712  0.5229
  159DG      H3 3637   3.005   3.446   3.617 -0.4723  0.0708  0.1287
  159DG      H4 3638   3.163   3.369   3.628 -0.2841 -0.7418 -0.5332
  159DG      H5 3639   3.068   3.396   3.775 -0.5244 -0.3896  0.3724
  159DG      H6 3640   2.561   3.060   4.068  0.5649 -0.9565  0.0801
  159DG      H7 3641   2.657   3.213   4.074  1.0196  1.0282 -1.7362
  159DG      H8 3642   2.523   3.207   3.979  0.8441  0.5330 -0.3816
  159DG      O9 3643   3.015   3.228   3.668  0.3905 -0.6099  0.3391
  159DG     O10 3644   2.688   3.103   3.908 -0.1777 -0.1684 -0.0969
  159DG     C11 3645   2.960   3.184   3.545  0.0209  0.0315  0.3392
  159DG     C12 3646   2.618   3.027   3.813  0.3384  0.2651  0.5380
  159DG     H13 3647   3.039   3.168   3.472 -1.4694 -1.8421 -0.9525
  159DG     H14 3648   2.892   3.260   3.507 -3.0894 -2.5630  0.3041
  159DG     H15 3649   2.536   3.080   3.764  0.1855 -0.9570 -0.5542
  159DG     H16 3650   2.571   2.943   3.863  1.2606 -0.0547  0.8748
  159DG     C17 3651   2.875   3.059   3.565 -0.0912 -0.4305  0.2780
  159DG     C18 3652   2.710   2.973   3.706 -0.5560 -1.7733  0.1197
  159DG     O19 3653   2.775   3.092   3.657 -0.0356  0.6223  0.0982
  159DG     H20 3654   2.932   2.972   3.595  0.4435 -0.7835 -1.6234
  159DG     H21 3655   2.832   3.024   3.472 -1.0984  0.1452  0.5128
  159DG     H22 3656   2.777   2.902   3.753 -1.0902 -1.0144  2.1606
  159DG     H23 3657   2.658   2.922   3.625  0.3696 -0.9274 -1.0380
  160DG      C1 3658   1.185   1.094   4.689 -0.4014 -0.1129  0.4177
  160DG      C2 3659   0.661   1.058   4.626  0.1326  0.5776 -0.0192
  160DG      H3 3660   1.226   1.182   4.739  2.6884 -0.6266 -0.9379
  160DG      H4 3661   1.261   1.040   4.631 -0.8851 -0.6041  0.2302
  160DG      H5 3662   1.146   1.028   4.766 -1.3848 -0.2258 -0.1649
  160DG      H6 3663   0.733   1.043   4.546 -0.1487  1.5582 -0.4766
  160DG      H7 3664   0.663   0.986   4.708 -0.4524 -0.3688 -0.8047
  160DG      H8 3665   0.564   1.028   4.585  1.2992 -2.3658 -0.9181
  160DG      O9 3666   1.080   1.123   4.600  0.3238 -0.0936  0.2599
  160DG     O10 3667   0.671   1.194   4.678 -0.2770 -0.0750 -0.5699
  160DG     C11 3668   1.123   1.196   4.489  0.1037  0.4759  0.0421
  160DG     C12 3669   0.655   1.300   4.577 -0.1714  0.1018  0.7492
  160DG     H13 3670   1.200   1.139   4.437  0.4024  1.4047 -0.5400
  160DG     H14 3671   1.169   1.293   4.507  1.2400  0.1891 -1.2115
  160DG     H15 3672   0.657   1.395   4.630 -0.2777 -0.2369  1.3770
  160DG     H16 3673   0.555   1.301   4.534  0.2596 -0.3117 -0.2921
  160DG     C17 3674   0.991   1.242   4.424 -0.4861  0.0691  0.2083
  160DG     C18 3675   0.766   1.296   4.464  0.1856  0.5624 -0.5507
  160DG     O19 3676   0.895   1.276   4.525 -0.2239 -0.2460 -0.2259
  160DG     H20 3677   0.952   1.168   4.353 -0.8247  0.0314  0.4315
  160DG     H21 3678   1.012   1.336   4.373  1.7615  0.6044  1.9792
  160DG     H22 3679   0.735   1.213   4.401  0.0334 -0.7743  1.1989
  160DG     H23 3680   0.767   1.385   4.401 -2.6513 -0.0427 -1.6167
  161DG      C1 3681   4.282   4.994   0.882 -0.3940  0.1787  0.5991
  161DG      C2 3682   4.082   4.519   0.368  0.0087 -0.2782  0.4085
  161DG      H3 3683   4.359   5.059   0.924 -0.3572  2.0067 -2.0677
  161DG      H4 3684   4.220   4.961   0.966 -1.1036  1.5801  0.6506
  161DG      H5 3685   4.219   5.066   0.830 -0.0501  0.5746  0.7271
  161DG      H6 3686   4.004   4.590   0.339  0.5827 -0.5149 -1.8744
  161DG      H7 3687   4.113   4.457   0.285 -1.5160 -0.1205 -0.3012
  161DG      H8 3688   4.047   4.452   0.446  1.3370 -0.8735  0.5186
  161DG      O9 3689   4.323   4.892   0.786  0.3112  0.1790 -0.3251
  161DG     O10 3690   4.194   4.591   0.404 -0.2375  0.2489 -0.3004
  161DG     C11 3691   4.422   4.929   0.691 -0.0456 -0.6530  0.6583
  161DG     C12 3692   4.296   4.516   0.471  0.3944 -0.3354  0.0665
  161DG     H13 3693   4.503   4.973   0.748  0.7336 -0.6225 -0.4384
  161DG     H14 3694   4.374   5.009   0.634 -1.0294 -0.7081  1.3835
  161DG     H15 3695   4.332   4.433   0.410  0.6724  0.2792 -0.6178
  161DG     H16 3696   4.258   4.482   0.567  0.0859 -0.4442 -0.0915
  161DG     C17 3697   4.473   4.815   0.605 -0.0283 -0.1610  0.0179
  161DG     C18 3698   4.414   4.607   0.495 -0.5414 -0.5128  0.0678
  161DG     O19 3699   4.367   4.731   0.548 -0.4414 -0.0752 -0.2643
  161DG     H20 3700   4.523   4.753   0.679  2.6719  2.5333  0.6572
  161DG     H21 3701   4.549   4.845   0.532  0.4463 -0.3929  0.4132
  161DG     H22 3702   4.478   4.567   0.574  0.5203  2.5489  0.8966
  161DG     H23 3703   4.477   4.624   0.407  1.2661  0.0895  1.4250
  162DG      C1 3704   2.961   3.246   3.061  0.3074  1.0614 -0.1822
  162DG      C2 3705   3.529   3.297   2.660  0.4462  0.1705 -0.0630
  162DG      H3 3706   2.918   3.318   2.991  0.6116  1.2597 -0.1636
  162DG      H4 3707   2.895   3.238   3.147  1.4713 -0.2686  0.6169
  162DG      H5 3708   2.958   3.147   3.017  0.5568  1.5673 -1.3838
  162DG      H6 3709   3.586   3.205   2.643  4.3881  1.9633  2.0700
  162DG      H7 3710   3.466   3.288   2.572  1.0820 -0.8383 -0.4359
  162DG      H8 3711   3.597   3.381   2.641 -0.5011  0.7606 -0.9346
  162DG      O9 3712   3.093   3.291   3.080  0.2610  0.4629 -0.2840
  162DG     O10 3713   3.458   3.314   2.782  0.4515 -0.2451  0.2726
  162DG     C11 3714   3.158   3.230   3.185  0.3451  0.1946 -0.0411
  162DG     C12 3715   3.536   3.258   2.887  0.0312  0.0078  0.1353
  162DG     H13 3716   3.159   3.121   3.182  0.5859  0.2121 -1.7838
  162DG     H14 3717   3.112   3.268   3.276  0.9242  3.2791 -0.9189
  162DG     H15 3718   3.634   3.305   2.886 -0.6407  1.4776 -1.6650
  162DG     H16 3719   3.537   3.150   2.870 -1.9775 -0.0133 -0.0971
  162DG     C17 3720   3.296   3.284   3.176 -0.7559 -0.6449  0.5068
  162DG     C18 3721   3.480   3.288   3.025  0.2402 -0.4392 -0.7558
  162DG     O19 3722   3.346   3.251   3.048  0.2381  0.0985 -0.2341
  162DG     H20 3723   3.361   3.246   3.255  1.0090  3.2104  1.1810
  162DG     H21 3724   3.282   3.392   3.186  1.8115 -0.1993  0.0129
  162DG     H22 3725   3.542   3.234   3.097  1.2330  0.0131 -1.2480
  162DG     H23 3726   3.484   3.393   3.051  2.4773 -0.9433  1.3941
  163DG      C1 3727   2.160   0.761   4.308  0.1352  0.3828 -0.5323
  163DG      C2 3728   1.661   0.292   4.391  0.8917  1.0196  0.3714
  163DG      H3 3729   2.167   0.844   4.378  1.0479  0.9497 -1.2750
  163DG      H4 3730   2.101   0.798   4.223 -1.5867 -0.6162  0.1672
  163DG      H5 3731   2.261   0.735   4.276 -0.4847 -0.4774 -1.9204
  163DG      H6 3732   1.625   0.271   4.290  0.9536 -0.9535  0.7253
  163DG      H7 3733   1.618   0.207   4.444 -1.1843  1.0161 -1.1756
  163DG      H8 3734   1.607   0.382   4.421 -0.7665  0.6159 -1.2155
  163DG      O9 3735   2.095   0.658   4.368 -0.3128 -0.6482  0.1612
  163DG     O10 3736   1.799   0.290   4.387  0.5131  0.1811  0.2116
  163DG     C11 3737   2.176   0.607   4.467 -0.3483  0.0262 -0.9026
  163DG     C12 3738   1.864   0.252   4.503  0.1422 -0.5696 -0.3228
  163DG     H13 3739   2.137   0.621   4.568  0.5755 -2.7024 -0.0551
  163DG     H14 3740   2.284   0.623   4.471 -0.2331 -0.9854  1.3675
  163DG     H15 3741   1.834   0.157   4.547 -1.4993  0.7259  1.5904
  163DG     H16 3742   1.820   0.324   4.573 -0.0799  0.6704 -1.6997
  163DG     C17 3743   2.168   0.460   4.449  0.1817  0.9029 -0.3898
  163DG     C18 3744   2.015   0.274   4.485  0.1471 -0.5852  0.3729
  163DG     O19 3745   2.031   0.419   4.466  0.0759  0.4434 -0.2345
  163DG     H20 3746   2.234   0.410   4.520 -1.1753 -0.4613 -0.0372
  163DG     H21 3747   2.204   0.436   4.349  0.7158  2.3900 -0.5845
  163DG     H22 3748   2.063   0.231   4.573  0.3571 -0.7199  0.1932
  163DG     H23 3749   2.040   0.222   4.393 -0.5967  1.9746 -1.3776
  164DG      C1 3750   2.501   1.073   0.907  0.6605  0.2661 -0.1455
  164DG      C2 3751   3.044   0.838   0.602  0.3255 -0.7699 -0.3856
  164DG      H3 3752   2.516   1.127   0.814  0.8081  0.9749  0.2840
  164DG      H4 3753   2.463   1.142   0.981 -1.7711 -0.2903 -0.7957
  164DG      H5 3754   2.431   0.991   0.891 -1.6581  2.4371 -1.8375
  164DG      H6 3755   3.143   0.867   0.567 -0.0923 -0.2657 -1.1849
  164DG      H7 3756   3.036   0.733   0.628  0.8990 -0.3822  1.4885
  164DG      H8 3757   2.974   0.861   0.522  1.2806  0.5752 -0.8762
  164DG      O9 3758   2.626   1.017   0.940 -0.5028 -0.0127 -0.2686
  164DG     O10 3759   2.990   0.913   0.708  0.1362  0.4428 -0.3036
  164DG     C11 3760   2.637   0.939   1.062  0.4627 -0.5028 -0.6122
  164DG     C12 3761   3.048   0.858   0.830 -0.1116 -0.0101  0.0760
  164DG     H13 3762   2.601   0.836   1.051  0.1306 -0.4470 -0.0935
  164DG     H14 3763   2.590   0.985   1.148  0.6559  1.8943 -1.7096
  164DG     H15 3764   3.155   0.875   0.845 -0.5606  1.5310  1.9194
  164DG     H16 3765   3.031   0.750   0.829 -1.6084  0.1964 -1.5584
  164DG     C17 3766   2.788   0.924   1.088 -0.0770 -0.6820 -0.9180
  164DG     C18 3767   2.982   0.913   0.956  0.4651 -0.5779  0.2152
  164DG     O19 3768   2.851   0.870   0.973 -0.0964  0.1282 -0.3589
  164DG     H20 3769   2.800   0.844   1.161  0.4160  0.0372 -0.1909
  164DG     H21 3770   2.828   1.019   1.123 -1.7125 -1.4412  3.6050
  164DG     H22 3771   3.045   0.889   1.041 -0.9940 -0.0504  1.5008
  164DG     H23 3772   2.981   1.021   0.940 -1.3851 -0.5699  0.1960
  165DG      C1 3773   0.110   1.124   4.637 -0.8397 -0.3067 -0.1370
  165DG      C2 3774   0.541   1.640   4.237 -0.9165  0.5876  0.3894
  165DG      H3 3775   0.068   1.048   4.572 -1.4902  0.9159 -1.1807
  165DG      H4 3776   0.039   1.138   4.719  0.1378  2.3122  0.3597
  165DG      H5 3777   0.207   1.092   4.675 -0.2986  3.0588  1.7734
  165DG      H6 3778   0.637   1.643   4.289 -0.7988  2.7020  0.1557
  165DG      H7 3779   0.551   1.576   4.149 -0.0784  1.5354 -0.2310
  165DG      H8 3780   0.515   1.740   4.200  0.1607  0.4959 -0.6928
  165DG      O9 3781   0.130   1.250   4.570  0.7825  0.0579  0.1614
  165DG     O10 3782   0.432   1.595   4.315 -0.4010  0.2551 -0.7487
  165DG     C11 3783   0.242   1.248   4.479 -1.1037 -0.1189 -0.0694
  165DG     C12 3784   0.425   1.653   4.442 -0.1790 -0.2779  0.1497
  165DG     H13 3785   0.227   1.174   4.401 -2.8818 -0.0561  0.1798
  165DG     H14 3786   0.332   1.223   4.536 -0.5232  2.2209  0.1610
  165DG     H15 3787   0.427   1.760   4.422  3.5969 -0.7353 -3.1118
  165DG     H16 3788   0.510   1.642   4.511  0.5146 -0.9598 -0.7860
  165DG     C17 3789   0.268   1.389   4.419 -1.0270 -0.6932  0.1999
  165DG     C18 3790   0.286   1.632   4.500 -0.5281 -0.1829  0.2268
  165DG     O19 3791   0.256   1.490   4.530 -0.2568  0.2100  0.3762
  165DG     H20 3792   0.199   1.400   4.335  1.1745 -2.8485 -2.0435
  165DG     H21 3793   0.369   1.388   4.378 -0.7874  0.8491  0.6779
  165DG     H22 3794   0.270   1.698   4.585 -1.4688 -1.7990  1.3509
  165DG     H23 3795   0.220   1.665   4.419  1.5430 -0.6126 -1.7478
  166DG      C1 3796   0.781   0.925   1.506  0.7601 -0.7514  0.2372
  166DG      C2 3797   0.774   0.537   2.074  0.0920  0.1274 -0.0882
  166DG      H3 3798   0.676   0.941   1.533  1.0606  1.3179  0.3410
  166DG      H4 3799   0.779   0.904   1.399 -0.2391 -0.9759  0.2843
  166DG      H5 3800   0.831   1.018   1.533  1.0709 -0.6540 -0.6458
  166DG      H6 3801   0.684   0.475   2.079 -1.0567  1.7705  0.9817
  166DG      H7 3802   0.830   0.489   2.154 -1.0758  0.4100  0.9430
  166DG      H8 3803   0.732   0.631   2.111  0.0166 -0.3405  1.0622
  166DG      O9 3804   0.833   0.819   1.569 -0.7503 -0.3820 -0.5129
  166DG     O10 3805   0.819   0.539   1.939  0.0570  0.5017 -0.3031
  166DG     C11 3806   0.972   0.808   1.549 -0.1940  0.1157 -0.3184
  166DG     C12 3807   0.961   0.542   1.930  1.0412  1.4309  0.0443
  166DG     H13 3808   1.020   0.890   1.602 -0.4095  0.5052 -0.7122
  166DG     H14 3809   1.009   0.822   1.447  2.4068  1.9901  0.7544
  166DG     H15 3810   0.986   0.448   1.978  2.0027  2.1433  0.9632
  166DG     H16 3811   1.015   0.622   1.980  0.9111  1.0579  0.7966
  166DG     C17 3812   1.021   0.678   1.600 -0.0374  0.3059  0.4998
  166DG     C18 3813   0.989   0.529   1.783  0.8101 -1.0773  0.5959
  166DG     O19 3814   0.982   0.667   1.735 -0.6346 -0.3122  0.0239
  166DG     H20 3815   1.129   0.670   1.586  0.2819  1.5511  1.9480
  166DG     H21 3816   0.976   0.603   1.536 -0.9537 -0.3524  1.8531
  166DG     H22 3817   1.091   0.495   1.772  1.8095  1.8412 -0.1327
  166DG     H23 3818   0.924   0.460   1.730  1.0626 -0.6501 -0.2991
  167DG      C1 3819   4.689   3.087   3.965  0.9174 -0.6525 -0.0892
  167DG      C2 3820   5.229   3.379   3.923  0.0057 -0.5929  0.0166
  167DG      H3 3821   4.754   3.000   3.976  1.2993 -0.4574 -0.7478
  167DG      H4 3822   4.653   3.087   3.862  2.2399 -1.8101 -0.5951
  167DG      H5 3823   4.607   3.080   4.036  2.0175  1.8905  1.5641
  167DG      H6 3824   5.290   3.290   3.911 -1.2436 -1.4733 -0.0674
  167DG      H7 3825   5.159   3.390   3.840  0.7796  0.4480 -0.5170
  167DG      H8 3826   5.308   3.450   3.899  0.1895 -1.5401 -2.4463
  167DG      O9 3827   4.770   3.203   3.988  0.0455 -0.1836  0.3673
  167DG     O10 3828   5.169   3.397   4.047  0.5729 -0.1449  0.2730
  167DG     C11 3829   4.698   3.315   4.029  0.4319 -0.2764  0.1439
  167DG     C12 3830   5.114   3.528   4.063 -0.0118 -0.3342  0.3041
  167DG     H13 3831   4.681   3.318   4.136 -0.3309 -2.1203  0.1063
  167DG     H14 3832   4.601   3.326   3.982 -0.3582  1.5900  2.0688
  167DG     H15 3833   5.185   3.600   4.022 -1.2357  1.4659  1.2230
  167DG     H16 3834   5.112   3.557   4.169  1.0958  0.8603  0.0295
  167DG     C17 3835   4.773   3.436   3.983  0.0359  0.1384 -0.0026
  167DG     C18 3836   4.978   3.536   4.002 -0.0221  0.0621 -0.0516
  167DG     O19 3837   4.906   3.425   4.045  0.1700  0.1358  0.4380
  167DG     H20 3838   4.715   3.524   4.010  2.8132  1.5489  1.8261
  167DG     H21 3839   4.780   3.440   3.874 -0.0347  4.4771 -0.0434
  167DG     H22 3840   4.923   3.626   4.028  0.0485  0.1101 -0.0680
  167DG     H23 3841   4.998   3.526   3.895  1.4382 -1.5611  0.3167
  168DG      C1 3842   3.266   1.073   2.472 -0.2003  0.3208 -0.6548
  168DG      C2 3843   2.686   1.215   1.968 -0.1969 -0.0172 -0.3435
  168DG      H3 3844   3.307   1.056   2.572  0.6965  1.4636 -0.8084
  168DG      H4 3845   3.336   1.135   2.416  0.8993  2.2206  2.5172
  168DG      H5 3846   3.267   0.978   2.419  2.5938 -0.0881 -0.0190
  168DG      H6 3847   2.648   1.314   1.944  1.3431  0.7727  0.3279
  168DG      H7 3848   2.609   1.146   1.934 -1.8224  1.5032  0.1046
  168DG      H8 3849   2.683   1.212   2.077  0.7333 -0.6720 -0.3181
  168DG      O9 3850   3.141   1.138   2.475 -0.5927  0.2158  0.2097
  168DG     O10 3851   2.818   1.185   1.929 -0.2408 -0.5182  0.2387
  168DG     C11 3852   3.050   1.114   2.366 -0.2922  0.3943 -0.0088
  168DG     C12 3853   2.917   1.290   1.962  0.7108  0.0050  0.5702
  168DG     H13 3854   2.950   1.153   2.383 -0.6877 -0.4674 -0.3264
  168DG     H14 3855   3.031   1.010   2.340 -0.4469  0.9765 -2.4915
  168DG     H15 3856   2.879   1.366   2.030  0.5639  1.6451 -1.2911
  168DG     H16 3857   2.935   1.345   1.870 -2.5960 -1.1110 -0.9011
  168DG     C17 3858   3.107   1.197   2.249  0.0011 -0.4517  0.4599
  168DG     C18 3859   3.050   1.225   2.016 -0.0204  0.2089 -0.3124
  168DG     O19 3860   3.007   1.193   2.146  0.5215 -0.0589  0.5307
  168DG     H20 3861   3.206   1.157   2.223  0.2191 -0.1753  0.8482
  168DG     H21 3862   3.123   1.298   2.287 -2.8979  0.1000  0.3927
  168DG     H22 3863   3.081   1.140   1.955 -1.0982  0.1531 -0.8135
  168DG     H23 3864   3.133   1.294   2.029  1.0569 -0.3840 -3.2766
  169DG      C1 3865   2.668   2.228   0.874 -0.5277 -0.7320  0.2214
  169DG      C2 3866   2.513   1.648   1.086 -0.4683 -0.6644 -0.7584
  169DG      H3 3867   2.641   2.229   0.979 -1.8788  0.5449 -0.0959
  169DG      H4 3868   2.639   2.327   0.837 -1.4338 -0.4907  1.5205
  169DG      H5 3869   2.774   2.208   0.858 -0.9715 -1.4832 -2.2693
  169DG      H6 3870   2.408   1.654   1.059 -0.4727 -0.9384 -0.8066
  169DG      H7 3871   2.534   1.550   1.129  0.6800  0.3808  1.2067
  169DG      H8 3872   2.522   1.718   1.169 -1.8692 -0.4610 -0.7575
  169DG      O9 3873   2.588   2.123   0.817 -0.2182  0.8871  0.2795
  169DG     O10 3874   2.611   1.698   0.996 -0.3202 -0.3822  0.1694
  169DG     C11 3875   2.614   2.085   0.686 -0.2931  0.6583  0.5670
  169DG     C12 3876   2.618   1.628   0.872  0.1508  0.2180 -0.3828
  169DG     H13 3877   2.720   2.090   0.660 -0.2706 -0.4955  0.3793
  169DG     H14 3878   2.571   2.147   0.607  1.8085 -0.3678 -1.5108
  169DG     H15 3879   2.563   1.534   0.862  0.9633 -0.3050 -0.0407
  169DG     H16 3880   2.724   1.614   0.853  0.3428  1.2943 -0.1772
  169DG     C17 3881   2.569   1.937   0.669  0.0382  0.0606 -0.2515
  169DG     C18 3882   2.575   1.715   0.759 -0.5238  0.2100  0.9563
  169DG     O19 3883   2.618   1.849   0.771 -0.0693  0.0198 -0.1596
  169DG     H20 3884   2.605   1.893   0.577 -1.9839 -0.1728 -0.9952
  169DG     H21 3885   2.460   1.942   0.665 -0.0186  0.5641  1.2044
  169DG     H22 3886   2.617   1.669   0.670  1.1672 -1.0793  2.3554
  169DG     H23 3887   2.466   1.719   0.753 -0.5287 -1.1488 -0.4841
  170DG      C1 3888   4.640   4.017   5.101  0.2905  0.1415 -0.2663
  170DG      C2 3889   4.407   4.465   5.628 -0.1072 -0.0971  0.0444
  170DG      H3 3890   4.582   4.014   5.009 -0.8257  1.3119  0.3748
  170DG      H4 3891   4.607   3.942   5.172  2.1695  0.0558  0.5772
  170DG      H5 3892   4.746   4.002   5.079  1.0133  2.9415  0.8925
  170DG      H6 3893   4.464   4.501   5.713 -1.6672  0.3906  0.9167
  170DG      H7 3894   4.326   4.537   5.618 -0.0266  0.3912  2.4353
  170DG      H8 3895   4.368   4.367   5.656 -0.5839 -0.3266 -1.3450
  170DG      O9 3896   4.627   4.140   5.169  0.1214  0.9978  0.6861
  170DG     O10 3897   4.491   4.434   5.515 -0.7689 -0.5104  0.1749
  170DG     C11 3898   4.701   4.230   5.099 -0.3978 -0.0063  0.1466
  170DG     C12 3899   4.574   4.543   5.475  0.2485 -0.2896 -0.3655
  170DG     H13 3900   4.636   4.268   5.020  0.8057  2.6344  0.3473
  170DG     H14 3901   4.794   4.202   5.050  0.8017  2.7078  0.7660
  170DG     H15 3902   4.622   4.592   5.560  0.7974 -2.6158  0.7486
  170DG     H16 3903   4.516   4.622   5.426  1.0167  0.3920 -0.2067
  170DG     C17 3904   4.743   4.348   5.191 -0.2990 -0.1629 -0.7754
  170DG     C18 3905   4.695   4.486   5.394  0.2941 -0.3023  0.7038
  170DG     O19 3906   4.650   4.392   5.291 -0.1094 -0.2416 -0.2999
  170DG     H20 3907   4.783   4.436   5.140 -1.1599  0.8802  0.3164
  170DG     H21 3908   4.827   4.295   5.236 -2.0086 -2.1418  0.2334
  170DG     H22 3909   4.733   4.574   5.343 -2.2283  1.0072  0.8945
  170DG     H23 3910   4.772   4.428   5.443  2.1846  0.1997 -1.4876
  171DG      C1 3911   2.376   3.428   3.845 -0.8551  1.0581 -0.3978
  171DG      C2 3912   2.041   4.168   3.531  0.0452 -0.0702  0.3532
  171DG      H3 3913   2.405   3.325   3.826 -1.6314  0.8109 -0.2930
  171DG      H4 3914   2.334   3.435   3.946  2.4935 -1.4692  1.3859
  171DG      H5 3915   2.461   3.491   3.818  1.1413 -1.1054  0.4929
  171DG      H6 3916   2.021   4.230   3.619  1.4200  0.1832  0.5010
  171DG      H7 3917   2.095   4.230   3.460  1.4124  0.0822  1.4810
  171DG      H8 3918   1.949   4.135   3.482 -0.0078  1.5475 -0.6943
  171DG      O9 3919   2.275   3.448   3.749  0.0950  0.7525  0.2168
  171DG     O10 3920   2.115   4.048   3.558 -0.1390 -0.7702 -0.2785
  171DG     C11 3921   2.272   3.586   3.714 -0.1396  0.4230  0.3352
  171DG     C12 3922   2.033   3.960   3.628 -0.2835  0.0191  0.0570
  171DG     H13 3923   2.363   3.613   3.661 -0.1362 -0.1999  0.0196
  171DG     H14 3924   2.264   3.645   3.806  1.9885 -0.0222  0.8566
  171DG     H15 3925   1.946   3.918   3.578 -0.3526  0.6514 -0.3625
  171DG     H16 3926   1.978   4.009   3.708  0.1971 -0.6557  0.8172
  171DG     C17 3927   2.149   3.621   3.627  0.2731  0.1947 -0.6069
  171DG     C18 3928   2.112   3.846   3.686  0.7476  0.4329  0.4959
  171DG     O19 3929   2.137   3.755   3.585  0.2421  0.2717  0.0266
  171DG     H20 3930   2.055   3.600   3.676  0.5433 -0.1177 -0.2219
  171DG     H21 3931   2.158   3.559   3.537 -1.5918 -2.7174  1.0547
  171DG     H22 3932   2.207   3.885   3.722  0.7222  0.5715  0.4149
  171DG     H23 3933   2.054   3.806   3.769  1.0516 -0.0204  0.4941
  172DG      C1 3934   1.873   3.622   0.526 -0.1837 -0.3750 -0.2745
  172DG      C2 3935   1.478   4.222   0.286 -0.1413 -0.0458 -0.0871
  172DG      H3 3936   1.778   3.568   0.538 -0.2335 -0.0279  1.0349
  172DG      H4 3937   1.930   3.619   0.619 -1.1256 -1.1745  0.3002
  172DG      H5 3938   1.936   3.564   0.458  0.8287  0.6344 -0.2265
  172DG      H6 3939   1.404   4.152   0.247  1.5014 -0.3187 -3.0708
  172DG      H7 3940   1.450   4.271   0.378  1.5789  1.6857 -0.4209
  172DG      H8 3941   1.486   4.299   0.209  1.9991 -0.2234 -0.1164
  172DG      O9 3942   1.867   3.758   0.488  0.2117 -0.3372 -0.0087
  172DG     O10 3943   1.592   4.141   0.291 -0.1052 -0.2172  0.1056
  172DG     C11 3944   1.856   3.770   0.343  0.7964  0.7107 -0.4941
  172DG     C12 3945   1.711   4.220   0.282  0.1322  0.4433 -0.6416
  172DG     H13 3946   1.800   3.686   0.301  0.5422 -0.8199  2.6429
  172DG     H14 3947   1.962   3.772   0.315  0.9880  0.0462  0.1372
  172DG     H15 3948   1.722   4.267   0.379 -0.4588  1.1897 -0.9301
  172DG     H16 3949   1.704   4.303   0.211 -2.5657  0.0123 -0.9630
  172DG     C17 3950   1.786   3.908   0.299  0.1691  0.3113 -1.0083
  172DG     C18 3951   1.841   4.140   0.263 -0.5848 -0.3410 -0.0329
  172DG     O19 3952   1.872   4.018   0.334 -0.5562 -0.3874 -0.0724
  172DG     H20 3953   1.696   3.921   0.358  0.4564  1.6301 -0.8258
  172DG     H21 3954   1.776   3.909   0.190  2.7636  2.4220 -1.3369
  172DG     H22 3955   1.851   4.129   0.155 -0.0953  0.4003 -0.0735
  172DG     H23 3956   1.924   4.205   0.292 -1.9443  0.9568  1.0791
  173DG      C1 3957   4.294   5.007   2.771  0.2011 -0.0105 -0.2922
  173DG      C2 3958   4.276   5.545   3.270 -0.2644 -0.0283  0.3577
  173DG      H3 3959   4.186   5.001   2.757  0.3625 -2.0105 -1.1771
  173DG      H4 3960   4.347   4.937   2.706  0.7262  2.4563 -2.6793
  173DG      H5 3961   4.326   5.101   2.728  0.3166 -0.3016 -0.8483
  173DG      H6 3962   4.330   5.627   3.316 -0.8455  1.5505 -1.6445
  173DG      H7 3963   4.316   5.550   3.169  1.1645 -1.9995  0.7596
  173DG      H8 3964   4.170   5.569   3.279  0.0273  1.2850  0.5030
  173DG      O9 3965   4.333   4.991   2.910  1.0606  0.3508  0.0971
  173DG     O10 3966   4.290   5.427   3.338 -0.4690  0.0811  0.1281
  173DG     C11 3967   4.307   5.114   2.980 -0.1828 -0.0963 -0.1531
  173DG     C12 3968   4.429   5.385   3.349 -0.5470  0.6501  0.1653
  173DG     H13 3969   4.203   5.099   3.010 -0.6295  1.1281 -1.0256
  173DG     H14 3970   4.311   5.202   2.916 -1.6049  0.5036  0.5417
  173DG     H15 3971   4.452   5.397   3.455  1.3856  1.1040 -0.2648
  173DG     H16 3972   4.506   5.446   3.301  1.1223 -0.0285  1.8970
  173DG     C17 3973   4.397   5.108   3.106 -0.1279 -0.0144  0.2602
  173DG     C18 3974   4.457   5.239   3.289  0.2177  0.3982  0.6466
  173DG     O19 3975   4.408   5.240   3.155  0.2032 -0.0964  0.4883
  173DG     H20 3976   4.490   5.058   3.082 -1.7893 -3.3449  0.2907
  173DG     H21 3977   4.354   5.042   3.182  0.7169 -2.0450 -0.9779
  173DG     H22 3978   4.559   5.202   3.299  0.6257  1.7201  1.7607
  173DG     H23 3979   4.397   5.172   3.351 -0.5224  0.2159 -0.2436
  174DG      C1 3980   0.608   2.964   0.403  0.6102  1.1847 -0.8372
  174DG      C2 3981   1.050   3.020   1.015  0.4121  0.8439  0.4919
  174DG      H3 3982   0.585   2.902   0.316  0.5348 -0.9902  0.6425
  174DG      H4 3983   0.559   3.061   0.400  0.2804  1.1386  1.1959
  174DG      H5 3984   0.559   2.907   0.482  0.6019  1.4344 -0.6636
  174DG      H6 3985   1.035   2.938   1.085 -0.6369  0.4115 -0.2246
  174DG      H7 3986   1.138   3.077   1.045 -0.3296  1.8771  0.7521
  174DG      H8 3987   0.957   3.076   1.019 -2.8480 -3.9652  0.5295
  174DG      O9 3988   0.741   2.979   0.436  0.3291 -0.5350 -0.0969
  174DG     O10 3989   1.063   2.958   0.891  0.5095  0.5013  0.4416
  174DG     C11 3990   0.799   2.853   0.462  0.1576 -0.6504 -0.5524
  174DG     C12 3991   1.101   3.049   0.787  0.4340 -0.4137 -0.1696
  174DG     H13 3992   0.782   2.778   0.386 -0.9990 -1.1928  0.2179
  174DG     H14 3993   0.754   2.826   0.557 -0.0810 -1.2126 -0.8261
  174DG     H15 3994   1.197   3.100   0.797  0.2444  0.2140 -1.3710
  174DG     H16 3995   1.026   3.126   0.774  0.1329 -0.6710  0.0204
  174DG     C17 3996   0.953   2.869   0.491 -0.0184 -0.3264 -0.2640
  174DG     C18 3997   1.108   2.981   0.648  0.1417 -0.0189  0.2399
  174DG     O19 3998   0.981   2.916   0.624 -0.1034 -0.1264  0.2615
  174DG     H20 3999   1.003   2.944   0.430 -1.1908 -1.0839 -2.2399
  174DG     H21 4000   1.006   2.776   0.472  0.6980 -0.0520  0.3364
  174DG     H22 4001   1.123   3.056   0.570 -0.2773 -0.8374 -0.6513
  174DG     H23 4002   1.191   2.910   0.639  2.5588  2.6248  0.3747
  175DG      C1 4003   2.887   0.958   1.692 -0.4075 -0.0005  0.4917
  175DG      C2 4004   3.177   0.411   1.845  0.1677 -0.4731 -0.0607
  175DG      H3 4005   2.977   1.006   1.728  0.3769 -2.4237  2.0112
  175DG      H4 4006   2.823   0.957   1.781 -1.2341  1.3297 -0.0575
  175DG      H5 4007   2.841   1.019   1.615  1.1746  1.6303  0.7892
  175DG      H6 4008   3.146   0.323   1.901 -0.8233  0.5675  1.0766
  175DG      H7 4009   3.266   0.378   1.791  0.6644 -1.6469  1.4007
  175DG      H8 4010   3.218   0.479   1.919  1.7648 -1.5047  0.0515
  175DG      O9 4011   2.893   0.820   1.645  0.1269  0.1127  0.4618
  175DG     O10 4012   3.070   0.461   1.761 -0.4516  0.0217 -0.2272
  175DG     C11 4013   2.936   0.818   1.509 -0.0663 -0.3166  0.0685
  175DG     C12 4014   3.044   0.377   1.647 -0.0703  0.3195  0.0046
  175DG     H13 4015   3.035   0.863   1.519  0.2714 -1.1682  0.6468
  175DG     H14 4016   2.862   0.875   1.453  0.7466 -0.5261 -1.2669
  175DG     H15 4017   2.991   0.285   1.673 -0.4860  0.4556 -0.3511
  175DG     H16 4018   3.134   0.343   1.596  1.2297  0.7010  1.9460
  175DG     C17 4019   2.936   0.679   1.452 -0.2879 -0.2260 -0.2289
  175DG     C18 4020   2.960   0.447   1.541  0.1705 -0.3762  0.9508
  175DG     O19 4021   3.005   0.585   1.536  0.4588  0.0335 -0.1861
  175DG     H20 4022   2.993   0.674   1.359 -0.7353  2.1035 -0.6914
  175DG     H21 4023   2.838   0.635   1.428  0.1405 -2.1944  1.3434
  175DG     H22 4024   2.972   0.401   1.443 -2.4443  1.1093 -0.1832
  175DG     H23 4025   2.854   0.434   1.565  0.0314 -0.8522  0.1293
  176DG      C1 4026   5.375   3.513   2.230  0.0376  0.0320 -0.3040
  176DG      C2 4027   5.052   3.579   2.875 -0.3306  0.1675  0.7340
  176DG      H3 4028   5.464   3.512   2.292  1.0887 -2.2141 -1.6923
  176DG      H4 4029   5.355   3.617   2.204  0.9195 -0.0898 -1.6061
  176DG      H5 4030   5.409   3.463   2.138  1.4009 -0.7061  0.5671
  176DG      H6 4031   4.952   3.565   2.916 -0.9841  0.0839 -0.8516
  176DG      H7 4032   5.124   3.583   2.958  0.1480  1.6933  0.2671
  176DG      H8 4033   5.060   3.671   2.819  2.2404  0.0631  0.7964
  176DG      O9 4034   5.271   3.443   2.303 -0.2434 -0.1225  0.0816
  176DG     O10 4035   5.092   3.457   2.804 -0.2333  0.2012 -0.1427
  176DG     C11 4036   5.311   3.329   2.371  0.1203  0.2406 -0.6089
  176DG     C12 4037   5.003   3.436   2.700  0.5938  0.3750  0.6508
  176DG     H13 4038   5.395   3.342   2.440 -1.1371 -1.7395  1.4505
  176DG     H14 4039   5.342   3.262   2.292 -1.1366 -0.8473 -0.2134
  176DG     H15 4040   4.989   3.522   2.634  1.5366  0.5534  0.6793
  176DG     H16 4041   4.904   3.402   2.730  0.5609 -1.9344 -1.7535
  176DG     C17 4042   5.201   3.258   2.443  0.5322  0.2848  0.1092
  176DG     C18 4043   5.053   3.312   2.625 -0.1290 -0.4910  0.6288
  176DG     O19 4044   5.159   3.352   2.540  0.1073  0.3537  0.0353
  176DG     H20 4045   5.242   3.162   2.473 -2.1483 -1.6331 -1.8349
  176DG     H21 4046   5.125   3.251   2.366  0.0085  2.3746  0.3547
  176DG     H22 4047   5.089   3.230   2.686  0.2327 -0.5862  0.2900
  176DG     H23 4048   4.968   3.282   2.563 -0.8984 -1.2565  2.0012
  177DG      C1 4049   2.300   4.365   0.192 -0.0724  0.7827 -0.4415
  177DG      C2 4050   2.753   3.688  -0.027  0.1110 -0.3478  0.2789
  177DG      H3 4051   2.370   4.347   0.273 -1.1208 -0.0552  0.3132
  177DG      H4 4052   2.211   4.415   0.229 -0.0176 -1.7951  3.8183
  177DG      H5 4053   2.341   4.427   0.112 -1.2046 -1.1520 -2.6517
  177DG      H6 4054   2.709   3.640   0.060 -0.0841  0.3589  0.5847
  177DG      H7 4055   2.736   3.625  -0.114 -0.4934 -0.3085  0.3650
  177DG      H8 4056   2.860   3.695  -0.009  0.0065  1.7188  0.3390
  177DG      O9 4057   2.256   4.237   0.144 -0.2541  0.8023 -0.8187
  177DG     O10 4058   2.694   3.816  -0.053  0.3045  0.0217 -0.1444
  177DG     C11 4059   2.362   4.145   0.117 -0.0835  0.8721 -0.3558
  177DG     C12 4060   2.559   3.805  -0.088  0.3568  0.1476 -0.1075
  177DG     H13 4061   2.433   4.134   0.198  1.2532  0.9231 -1.4953
  177DG     H14 4062   2.420   4.196   0.040  2.1731 -1.3142 -0.2077
  177DG     H15 4063   2.511   3.717  -0.044 -0.4708 -0.5235 -2.2256
  177DG     H16 4064   2.547   3.785  -0.194 -0.2483 -1.3749  0.2174
  177DG     C17 4065   2.303   4.013   0.066 -0.6849  0.6129 -0.3169
  177DG     C18 4066   2.488   3.936  -0.064  0.4402  0.7153 -1.1870
  177DG     O19 4067   2.408   3.916   0.046  0.0363  0.4526 -0.1723
  177DG     H20 4068   2.250   4.026  -0.029  0.5332  1.8538 -0.8633
  177DG     H21 4069   2.236   3.978   0.145  0.0199  0.7872  0.3674
  177DG     H22 4070   2.568   4.009  -0.050  0.3872  0.6759 -0.6532
  177DG     H23 4071   2.431   3.963  -0.153 -1.7293 -1.7615 -0.6597
  178DG      C1 4072   1.088   1.135   3.950  0.0593 -0.5918  0.1783
  178DG      C2 4073   1.331   1.878   3.898  0.3855 -0.0664  0.5126
  178DG      H3 4074   1.100   1.032   3.985 -2.2538 -1.1189 -0.3617
  178DG      H4 4075   1.107   1.142   3.843 -1.2357 -2.2286 -0.2001
  178DG      H5 4076   0.980   1.149   3.962  0.0099 -0.0105 -0.8687
  178DG      H6 4077   1.378   1.916   3.989 -0.1584 -1.7329  1.5144
  178DG      H7 4078   1.404   1.897   3.819  1.1917 -1.9177  0.7762
  178DG      H8 4079   1.239   1.936   3.890 -1.0458 -2.1518  1.0493
  178DG      O9 4080   1.154   1.223   4.032  0.0649  0.0355  0.0732
  178DG     O10 4081   1.298   1.741   3.903  0.4314 -0.7966 -0.2220
  178DG     C11 4082   1.299   1.226   4.006 -0.3531  0.1244 -0.1112
  178DG     C12 4083   1.415   1.657   3.907  0.2749 -0.2904 -0.2385
  178DG     H13 4084   1.323   1.225   3.900  0.9310  0.4918  0.1629
  178DG     H14 4085   1.335   1.129   4.038 -3.6703 -1.7564 -1.4840
  178DG     H15 4086   1.487   1.684   3.983  2.1564 -1.0889 -1.6547
  178DG     H16 4087   1.463   1.688   3.814  0.9958  1.4347  0.6786
  178DG     C17 4088   1.378   1.337   4.077 -0.3099 -0.2847 -0.0595
  178DG     C18 4089   1.381   1.505   3.908 -0.6141 -0.2746 -0.0273
  178DG     O19 4090   1.347   1.469   4.041 -0.7966  0.5118  0.2394
  178DG     H20 4091   1.485   1.325   4.060  0.0031 -0.3982  1.7515
  178DG     H21 4092   1.353   1.332   4.183 -1.8943 -1.8742 -0.4524
  178DG     H22 4093   1.309   1.476   3.831 -1.2634 -1.3284  0.9495
  178DG     H23 4094   1.478   1.460   3.889 -0.9208 -0.1081 -2.3742
  179DG      C1 4095   2.788   4.271   4.899  0.3488  0.5391  0.2517
  179DG      C2 4096   3.150   3.736   4.888 -0.2904  0.6414 -0.0531
  179DG      H3 4097   2.717   4.339   4.851 -0.6864 -2.1719 -2.4390
  179DG      H4 4098   2.868   4.341   4.922  2.5849 -1.4405 -0.9652
  179DG      H5 4099   2.744   4.243   4.995  0.3803  3.7257  1.2979
  179DG      H6 4100   3.252   3.764   4.915 -0.8709  2.1752  0.6837
  179DG      H7 4101   3.093   3.738   4.981  0.5518  0.7639  0.4782
  179DG      H8 4102   3.147   3.630   4.866 -0.5507  0.3245  1.3914
  179DG      O9 4103   2.841   4.171   4.813  0.5323  0.4341  0.4405
  179DG     O10 4104   3.089   3.834   4.807 -0.3618  0.5667 -0.5083
  179DG     C11 4105   2.878   4.215   4.679  0.6523  0.4570 -0.6982
  179DG     C12 4106   3.159   3.848   4.688  0.4700 -0.6496  0.2698
  179DG     H13 4107   2.959   4.287   4.690  0.7112  0.8399 -3.1241
  179DG     H14 4108   2.795   4.262   4.627  1.2058 -0.6441 -2.7096
  179DG     H15 4109   3.180   3.746   4.656  0.4167 -1.5032  2.7856
  179DG     H16 4110   3.256   3.893   4.710 -0.4867  0.4755  2.4653
  179DG     C17 4111   2.919   4.096   4.596  0.0632  0.0132  0.2802
  179DG     C18 4112   3.078   3.920   4.587  0.1100 -0.3088 -0.8366
  179DG     O19 4113   3.030   4.030   4.657  0.2033  0.2460 -0.0181
  179DG     H20 4114   2.950   4.134   4.499  2.5693  0.3314  1.1381
  179DG     H21 4115   2.839   4.023   4.581  0.6537 -0.5503 -0.1484
  179DG     H22 4116   3.138   3.947   4.501  0.3374  0.4535 -0.4481
  179DG     H23 4117   2.995   3.859   4.552  1.4308 -1.6442 -1.7461
  180DG      C1 4118   1.840   2.679   3.183 -0.0456 -0.1368  0.1496
  180DG      C2 4119   1.156   2.796   3.224 -0.6334  0.3952  0.6415
  180DG      H3 4120   1.893   2.622   3.259 -1.9134 -1.7787  0.2934
  180DG      H4 4121   1.866   2.784   3.198 -2.7366  0.6485 -0.1754
  180DG      H5 4122   1.876   2.639   3.088  0.4666  0.2023  0.1958
  180DG      H6 4123   1.063   2.738   3.223 -0.1230 -0.6859 -3.2361
  180DG      H7 4124   1.123   2.895   3.194 -2.6212 -0.9756 -2.1903
  180DG      H8 4125   1.225   2.757   3.149 -1.9588 -0.2977 -0.2762
  180DG      O9 4126   1.700   2.659   3.193 -0.1457 -0.3298 -0.0368
  180DG     O10 4127   1.224   2.775   3.343 -0.3085  0.0769 -0.3832
  180DG     C11 4128   1.659   2.525   3.214 -0.2590  0.2448  0.5670
  180DG     C12 4129   1.221   2.649   3.407  0.3347 -0.4256 -0.5293
  180DG     H13 4130   1.696   2.473   3.303  0.7814 -1.6228 -0.8818
  180DG     H14 4131   1.697   2.447   3.147 -3.3204 -1.9526  1.1373
  180DG     H15 4132   1.117   2.623   3.429  0.2736  1.5226  2.0578
  180DG     H16 4133   1.266   2.664   3.505  1.4048 -2.1422 -0.7276
  180DG     C17 4134   1.504   2.505   3.216  0.7542 -0.7390  0.0540
  180DG     C18 4135   1.308   2.542   3.341  0.8866  0.5307 -0.4784
  180DG     O19 4136   1.442   2.580   3.322 -0.4768  0.5279 -0.0873
  180DG     H20 4137   1.490   2.397   3.215  1.7889 -0.8901 -1.2197
  180DG     H21 4138   1.467   2.546   3.122 -0.8326 -1.9420  0.1182
  180DG     H22 4139   1.317   2.454   3.404  0.1479  1.2926  0.7131
  180DG     H23 4140   1.263   2.514   3.245  1.6701 -0.4139 -0.5849
  181DG      C1 4141   4.049   5.284   4.121 -0.3401  0.0921 -0.2870
  181DG      C2 4142   4.128   4.993   3.499 -0.0119  0.0712 -0.9316
  181DG      H3 4143   4.007   5.194   4.167  0.6237 -0.5150 -0.5653
  181DG      H4 4144   4.015   5.359   4.192  0.1693 -0.2558  0.3340
  181DG      H5 4145   4.153   5.260   4.142 -0.0905  1.3188 -0.0483
  181DG      H6 4146   4.073   4.900   3.517 -0.0857 -0.2638 -2.7326
  181DG      H7 4147   4.140   4.993   3.391 -1.4440 -1.0104 -1.1183
  181DG      H8 4148   4.229   4.985   3.539 -0.1455  0.2048 -0.5677
  181DG      O9 4149   4.021   5.307   3.986  0.3533  0.9090  0.0866
  181DG     O10 4150   4.068   5.111   3.548  0.2098  0.3825  0.0633
  181DG     C11 4151   4.082   5.423   3.936  0.7951  0.0843  0.0645
  181DG     C12 4152   4.121   5.225   3.489 -0.3869  0.5297  0.0542
  181DG     H13 4153   4.190   5.431   3.953  0.9470  2.7149 -1.5796
  181DG     H14 4154   4.034   5.501   3.995  0.0655 -1.2362  1.2960
  181DG     H15 4155   4.077   5.229   3.390  0.9788  0.2317 -0.5830
  181DG     H16 4156   4.228   5.208   3.498 -0.4864 -0.5334 -0.6412
  181DG     C17 4157   4.052   5.437   3.791  0.5597  0.2344  0.0976
  181DG     C18 4158   4.084   5.354   3.565 -0.5633  0.2799  0.4150
  181DG     O19 4159   4.083   5.328   3.701 -0.2293  0.0725  0.4474
  181DG     H20 4160   4.104   5.518   3.741 -1.1415  1.0004 -0.5368
  181DG     H21 4161   3.950   5.475   3.776  1.2541  2.0856 -0.1921
  181DG     H22 4162   4.146   5.442   3.544 -0.0483 -0.1006  0.3158
  181DG     H23 4163   3.985   5.382   3.532 -0.0036  0.6773 -0.9839
  182DG      C1 4164   2.153   1.878   0.159  0.4926 -0.5563  0.3345
  182DG      C2 4165   2.145   2.377   0.609 -0.6278 -0.0352 -0.0988
  182DG      H3 4166   2.258   1.851   0.172 -0.2425 -3.4202  0.8658
  182DG      H4 4167   2.145   1.961   0.088  2.7301 -0.1323  0.5093
  182DG      H5 4168   2.117   1.790   0.106  0.0236  1.4035 -2.9122
  182DG      H6 4169   2.180   2.386   0.712 -0.8477  0.4172 -0.0644
  182DG      H7 4170   2.219   2.410   0.536  1.5871 -2.3012  0.9623
  182DG      H8 4171   2.052   2.432   0.597 -1.8279 -1.9410  0.0499
  182DG      O9 4172   2.080   1.907   0.283 -0.2132 -0.2905 -0.1877
  182DG     O10 4173   2.121   2.242   0.588  0.2898 -0.6239 -0.1244
  182DG     C11 4174   2.107   1.797   0.364  0.1032  0.1414  0.4229
  182DG     C12 4175   2.193   2.154   0.672  0.1524  1.2202 -0.4140
  182DG     H13 4176   2.205   1.753   0.349 -0.4350 -0.2009 -2.8231
  182DG     H14 4177   2.041   1.714   0.340  0.7873 -0.0997 -0.6510
  182DG     H15 4178   2.174   2.180   0.776 -1.1732 -0.6646 -0.1281
  182DG     H16 4179   2.301   2.156   0.666  0.1559  0.2437 -0.7839
  182DG     C17 4180   2.078   1.842   0.509  0.5303 -0.5055 -1.2755
  182DG     C18 4181   2.145   2.011   0.656  0.0979 -0.2731  0.4022
  182DG     O19 4182   2.147   1.970   0.523  0.4209 -0.5006  0.1435
  182DG     H20 4183   2.120   1.773   0.582 -0.9031  1.9261  2.1404
  182DG     H21 4184   1.971   1.850   0.530  0.5266  0.0417 -1.4902
  182DG     H22 4185   2.196   1.939   0.721  0.7071  1.0793  1.4823
  182DG     H23 4186   2.043   2.007   0.695 -0.7614  3.8242 -0.9318
  183DG      C1 4187   4.005   2.304   0.180  0.5895 -0.8382  0.3896
  183DG      C2 4188   3.560   1.982   0.542  0.1137 -0.3598  0.1261
  183DG      H3 4189   4.038   2.338   0.279  2.7792  1.6241 -1.0743
  183DG      H4 4190   3.941   2.383   0.142  1.9406 -0.8593 -2.1027
  183DG      H5 4191   4.088   2.308   0.110  1.8726 -1.7044  1.7797
  183DG      H6 4192   3.485   1.902   0.546 -0.0539 -0.4920 -3.0642
  183DG      H7 4193   3.618   1.975   0.634 -0.3039 -0.1314  0.4087
  183DG      H8 4194   3.499   2.072   0.536  0.6154 -0.0914 -1.2667
  183DG      O9 4195   3.953   2.177   0.179  0.4033  0.1693 -0.4607
  183DG     O10 4196   3.654   1.974   0.430  0.1182  0.1473  0.3103
  183DG     C11 4197   4.058   2.073   0.195  0.4932  0.2790 -0.3194
  183DG     C12 4198   3.741   1.865   0.456 -1.0018 -0.3621  0.1911
  183DG     H13 4199   4.116   2.098   0.283 -1.9674  2.8195  0.7290
  183DG     H14 4200   4.119   2.077   0.105 -0.6074 -0.7661 -1.1540
  183DG     H15 4201   3.683   1.776   0.480 -1.4626 -0.0459  0.2729
  183DG     H16 4202   3.800   1.888   0.545 -2.6100 -0.4887  1.3447
  183DG     C17 4203   3.989   1.935   0.211 -0.2891  0.1781 -0.0543
  183DG     C18 4204   3.825   1.829   0.335 -0.1138 -0.7522 -0.0704
  183DG     O19 4205   3.881   1.955   0.302  0.1025 -0.1373 -0.3601
  183DG     H20 4206   4.055   1.852   0.238 -0.6722 -1.3335 -3.3169
  183DG     H21 4207   3.948   1.902   0.116  1.1796 -0.2814 -0.5536
  183DG     H22 4208   3.892   1.746   0.358  1.2322 -0.2328 -1.8569
  183DG     H23 4209   3.768   1.785   0.252 -0.6658 -1.6787  0.7804
  184DG      C1 4210   3.737   4.898   2.097  0.0794  0.1873  0.8790
  184DG      C2 4211   3.476   4.382   2.402 -0.4725  0.6196 -0.2053
  184DG      H3 4212   3.824   4.936   2.151  0.1930  1.9500 -0.4459
  184DG      H4 4213   3.691   4.968   2.028 -0.8681 -2.2276 -1.0988
  184DG      H5 4214   3.755   4.802   2.048 -1.0351  0.8671 -0.9802
  184DG      H6 4215   3.482   4.353   2.297 -0.3002  2.0020 -0.6083
  184DG      H7 4216   3.571   4.350   2.445 -1.1153 -2.3935 -0.8549
  184DG      H8 4217   3.396   4.324   2.449 -0.0173  0.0808 -0.0965
  184DG      O9 4218   3.639   4.857   2.193  0.4204 -0.1247 -0.2585
  184DG     O10 4219   3.443   4.523   2.404  0.0098 -0.1290 -0.1401
  184DG     C11 4220   3.630   4.950   2.298  0.1611 -0.4146 -1.0995
  184DG     C12 4221   3.418   4.591   2.532  0.6799 -0.1397 -0.3916
  184DG     H13 4222   3.616   5.054   2.271 -0.1388  0.0437  0.6791
  184DG     H14 4223   3.712   4.952   2.370 -0.6117  0.8055 -0.2244
  184DG     H15 4224   3.495   4.564   2.605  0.6273  0.1811 -0.2118
  184DG     H16 4225   3.327   4.538   2.558  0.6966 -0.0486 -0.1373
  184DG     C17 4226   3.512   4.911   2.392  0.7356  0.0649  0.5354
  184DG     C18 4227   3.408   4.745   2.515  0.8583  0.0414  0.6711
  184DG     O19 4228   3.511   4.776   2.423 -0.2948  0.4371  0.2242
  184DG     H20 4229   3.422   4.946   2.342  2.1646  2.8969 -0.3344
  184DG     H21 4230   3.517   4.966   2.486  0.1216  0.6644  0.2237
  184DG     H22 4231   3.318   4.783   2.466  1.1504  0.1702  0.2306
  184DG     H23 4232   3.412   4.794   2.612  0.8352  2.1533 -0.3488
  185DG      C1 4233   2.484   4.862   2.109  0.6423  0.1448 -0.7056
  185DG      C2 4234   2.515   4.914   2.835 -0.0060  0.3009 -0.0896
  185DG      H3 4235   2.386   4.900   2.083  0.3036 -0.7145 -0.7137
  185DG      H4 4236   2.474   4.765   2.061 -0.2597  0.1979 -0.6277
  185DG      H5 4237   2.562   4.918   2.056  2.1581 -0.7599  0.4904
  185DG      H6 4238   2.525   4.958   2.934  3.7942 -2.4133  0.9935
  185DG      H7 4239   2.416   4.870   2.823  0.1002  0.4314 -1.6569
  185DG      H8 4240   2.599   4.844   2.836  0.1404  0.4321  2.2501
  185DG      O9 4241   2.511   4.866   2.245  0.2877  0.5267  0.2774
  185DG     O10 4242   2.518   5.005   2.730  0.1697 -0.0105  0.7954
  185DG     C11 4243   2.477   4.993   2.300  0.8016  0.7039 -0.4745
  185DG     C12 4244   2.636   5.082   2.703  0.1376 -0.2009 -0.1668
  185DG     H13 4245   2.372   4.984   2.330  0.3852  0.5820 -1.8817
  185DG     H14 4246   2.482   5.083   2.239 -0.2470  0.9336 -0.2511
  185DG     H15 4247   2.731   5.029   2.706  0.2631  0.0320  0.0312
  185DG     H16 4248   2.646   5.152   2.786 -1.4895  1.3176 -1.1658
  185DG     C17 4249   2.565   5.005   2.422 -0.4094 -0.4994 -0.6460
  185DG     C18 4250   2.631   5.169   2.573 -0.1423 -0.2776  0.1692
  185DG     O19 4251   2.532   5.130   2.474 -0.6460  0.4693  0.3230
  185DG     H20 4252   2.670   5.014   2.395 -0.4941  1.8439 -0.3440
  185DG     H21 4253   2.540   4.931   2.498 -2.0262  0.5961 -0.0475
  185DG     H22 4254   2.594   5.264   2.610  0.1891 -0.1646  0.2181
  185DG     H23 4255   2.726   5.199   2.527  0.5971  0.4384  2.0829
  186DG      C1 4256   5.350   1.252   1.044  0.5989  0.9199  0.2427
  186DG      C2 4257   5.001   0.577   1.068 -0.3159  0.3394  0.2660
  186DG      H3 4258   5.361   1.196   0.952 -1.4272 -1.9058  1.5900
  186DG      H4 4259   5.449   1.245   1.089  0.7490 -1.6508 -0.3297
  186DG      H5 4260   5.328   1.358   1.028  0.4122  1.1300  1.7453
  186DG      H6 4261   4.969   0.604   0.968  0.4127  1.0606  0.2123
  186DG      H7 4262   5.065   0.489   1.059 -0.6933  0.1483 -0.5998
  186DG      H8 4263   4.916   0.540   1.125  1.4932 -1.3071  2.0837
  186DG      O9 4264   5.260   1.190   1.133  0.2170  0.0938 -0.3803
  186DG     O10 4265   5.066   0.687   1.131  1.1609  0.0538 -0.5033
  186DG     C11 4266   5.130   1.189   1.081  0.0078 -0.2943  0.4873
  186DG     C12 4267   5.165   0.752   1.051 -0.3326 -0.3311 -0.1009
  186DG     H13 4268   5.123   1.163   0.975 -1.6160  0.3651  0.4005
  186DG     H14 4269   5.082   1.286   1.091 -0.3948 -0.5998  1.7665
  186DG     H15 4270   5.143   0.758   0.944  0.3342 -0.9571 -0.2795
  186DG     H16 4271   5.263   0.705   1.056 -0.3596 -0.3668  0.0786
  186DG     C17 4272   5.044   1.095   1.158 -0.0008  0.4266  0.8430
  186DG     C18 4273   5.176   0.894   1.101 -0.0255 -0.1537 -0.5279
  186DG     O19 4274   5.050   0.963   1.093  0.7937  0.8043  0.0627
  186DG     H20 4275   4.938   1.119   1.152  0.3913  2.0033 -0.4010
  186DG     H21 4276   5.072   1.063   1.258 -1.8523 -0.9990  0.9455
  186DG     H22 4277   5.200   0.892   1.208 -0.4051  1.9297 -0.3633
  186DG     H23 4278   5.251   0.953   1.048  1.6067 -0.1357  1.6372
  187DG      C1 4279   1.242   0.602   2.650 -0.3609  0.2457  0.7321
  187DG      C2 4280   1.674   0.087   2.883 -0.4004  0.9054  0.1657
  187DG      H3 4281   1.194   0.509   2.619 -0.0546  1.0811 -2.6805
  187DG      H4 4282   1.290   0.646   2.563  0.8252 -1.6372  0.3709
  187DG      H5 4283   1.157   0.663   2.680  0.9512  2.6496 -0.1406
  187DG      H6 4284   1.583   0.040   2.846 -1.0697  0.8792  1.7428
  187DG      H7 4285   1.743   0.072   2.800  1.2051 -2.6698  1.9200
  187DG      H8 4286   1.719   0.036   2.968 -2.3693 -2.6460 -0.7244
  187DG      O9 4287   1.340   0.555   2.742 -0.1636 -0.2881  0.0959
  187DG     O10 4288   1.627   0.220   2.904 -0.9821 -0.1228  0.0365
  187DG     C11 4289   1.414   0.661   2.802 -0.4463 -0.5633  0.2481
  187DG     C12 4290   1.729   0.312   2.954  0.8611  0.0342  0.9292
  187DG     H13 4291   1.348   0.745   2.825  1.2147  0.4701  1.4968
  187DG     H14 4292   1.490   0.696   2.733 -0.0879  0.4545  1.1269
  187DG     H15 4293   1.814   0.323   2.887  0.4257  2.4146  0.6805
  187DG     H16 4294   1.777   0.279   3.047 -1.4884  0.6222  2.4454
  187DG     C17 4295   1.483   0.606   2.926 -0.7848  0.6222 -1.0415
  187DG     C18 4296   1.660   0.442   2.986  0.0387  0.3935  0.2577
  187DG     O19 4297   1.577   0.498   2.885 -0.6191 -0.0979  0.8808
  187DG     H20 4298   1.419   0.566   3.004 -1.4080  0.6230 -1.5379
  187DG     H21 4299   1.553   0.678   2.968  2.2327 -2.6511  0.0250
  187DG     H22 4300   1.585   0.423   3.063 -0.7006 -3.4661 -1.1901
  187DG     H23 4301   1.743   0.509   3.011 -1.1637  2.0184  0.1035
  188DG      C1 4302   1.990   2.250   4.596  0.0039 -0.3671 -0.6728
  188DG      C2 4303   1.377   2.721   4.720  0.0249  0.4006 -0.6656
  188DG      H3 4304   1.938   2.183   4.528 -0.7220 -1.6551  1.0733
  188DG      H4 4305   2.067   2.191   4.645  0.0184  1.2811  1.4145
  188DG      H5 4306   2.026   2.338   4.542 -0.3564  0.0621 -0.2213
  188DG      H6 4307   1.305   2.667   4.659 -1.6488  0.9047  0.8069
  188DG      H7 4308   1.327   2.789   4.788  0.5330 -1.5527  1.7863
  188DG      H8 4309   1.444   2.771   4.650  1.7428  0.4680  0.9464
  188DG      O9 4310   1.905   2.294   4.696 -0.1882 -0.8796  0.2408
  188DG     O10 4311   1.450   2.626   4.797  0.2940 -0.0214 -0.3888
  188DG     C11 4312   1.788   2.354   4.641  0.1322  0.2015 -0.1657
  188DG     C12 4313   1.570   2.675   4.858  0.8849 -0.4191 -1.2571
  188DG     H13 4314   1.747   2.285   4.568  0.7633  0.8123 -1.1271
  188DG     H14 4315   1.803   2.450   4.591 -0.9748  1.1411  1.2169
  188DG     H15 4316   1.537   2.738   4.941  2.0261 -1.0414 -0.2986
  188DG     H16 4317   1.623   2.740   4.789  0.9352 -0.7369 -1.5207
  188DG     C17 4318   1.683   2.385   4.754  0.1109  0.1205 -0.5005
  188DG     C18 4319   1.671   2.567   4.921 -0.1172 -0.6297  0.1944
  188DG     O19 4320   1.739   2.496   4.814 -0.1996  0.2729  0.2225
  188DG     H20 4321   1.661   2.302   4.820 -3.1072  0.8668 -0.4946
  188DG     H21 4322   1.590   2.403   4.701 -0.8051 -1.4278  0.5322
  188DG     H22 4323   1.750   2.624   4.970  0.7766 -2.4622  0.9872
  188DG     H23 4324   1.619   2.509   4.997 -1.1727  1.1119  0.8546
  189DG      C1 4325   4.390   2.743   1.440 -0.2650 -0.4139  0.4054
  189DG      C2 4326   4.172   3.306   1.881  0.4717  0.4533 -0.4167
  189DG      H3 4327   4.394   2.651   1.498 -0.1279 -1.0885 -0.6553
  189DG      H4 4328   4.484   2.797   1.447 -1.2797  1.2627  1.9527
  189DG      H5 4329   4.396   2.702   1.340  3.6514  0.6049  0.0825
  189DG      H6 4330   4.250   3.381   1.894  1.3277 -0.6040  0.8241
  189DG      H7 4331   4.076   3.357   1.890  2.4303  4.0815  3.2382
  189DG      H8 4332   4.177   3.243   1.969 -0.8763 -0.5480 -1.0125
  189DG      O9 4333   4.273   2.809   1.464  0.0347  0.6312  0.2492
  189DG     O10 4334   4.204   3.235   1.764 -0.0309 -0.1678 -0.4676
  189DG     C11 4335   4.252   2.902   1.370  0.5553 -0.8369 -0.4975
  189DG     C12 4336   4.106   3.168   1.693  0.7997 -0.4727 -0.3695
  189DG     H13 4337   4.260   2.857   1.271  2.3638 -3.0171  0.5641
  189DG     H14 4338   4.311   2.994   1.373  0.6555 -0.8263 -1.8812
  189DG     H15 4339   4.037   3.244   1.657  1.9749  1.1544  0.6515
  189DG     H16 4340   4.054   3.098   1.758 -0.1638 -0.2355 -0.8663
  189DG     C17 4341   4.111   2.956   1.389  0.1837  0.4591 -0.0377
  189DG     C18 4342   4.167   3.096   1.571 -0.1625  0.3121  0.5545
  189DG     O19 4343   4.084   2.985   1.527  0.2838  0.2537  0.3960
  189DG     H20 4344   4.046   2.871   1.365  0.0008  1.3242 -2.9912
  189DG     H21 4345   4.082   3.034   1.319  2.8821 -0.5574 -2.4804
  189DG     H22 4346   4.196   3.161   1.489  1.7009 -0.8873  0.1922
  189DG     H23 4347   4.265   3.060   1.604  0.6328  0.6140 -1.3676
  190DG      C1 4348   4.393   0.517   1.059 -0.2464  0.1277 -0.3049
  190DG      C2 4349   4.736   0.220   1.645 -0.0656  0.8826  0.2622
  190DG      H3 4350   4.382   0.485   0.956 -0.9606 -1.5647  0.2647
  190DG      H4 4351   4.424   0.621   1.048 -0.1611  0.1479  0.1063
  190DG      H5 4352   4.312   0.504   1.130  1.1050 -2.2745  0.9585
  190DG      H6 4353   4.723   0.324   1.676  1.3076  0.9505  0.6375
  190DG      H7 4354   4.648   0.160   1.670 -1.2115  1.8665 -1.2101
  190DG      H8 4355   4.828   0.176   1.682 -0.3248 -1.0735 -1.2620
  190DG      O9 4356   4.488   0.428   1.113  0.0758 -0.0372 -0.4808
  190DG     O10 4357   4.737   0.217   1.499  0.0607 -0.1151 -0.3415
  190DG     C11 4358   4.627   0.431   1.062  0.3264 -0.2169  0.2072
  190DG     C12 4359   4.863   0.267   1.457  0.1382  0.5686  0.1887
  190DG     H13 4360   4.668   0.520   1.108 -1.5063 -0.2525  2.0418
  190DG     H14 4361   4.637   0.425   0.954  0.9151  0.6576  0.2106
  190DG     H15 4362   4.947   0.200   1.478  0.6530  0.4790 -1.8840
  190DG     H16 4363   4.885   0.373   1.468  2.4625  0.2272 -0.4291
  190DG     C17 4364   4.703   0.314   1.119  0.1661 -0.4526  0.1115
  190DG     C18 4365   4.851   0.256   1.307 -1.0428  0.2222 -0.5354
  190DG     O19 4366   4.737   0.333   1.256 -0.1378 -0.0947  0.0841
  190DG     H20 4367   4.796   0.314   1.061  0.7400  0.4226  0.9954
  190DG     H21 4368   4.653   0.219   1.102 -3.0775  1.4495 -2.1297
  190DG     H22 4369   4.945   0.280   1.258  0.4229 -2.0243  1.0140
  190DG     H23 4370   4.828   0.153   1.279 -0.4375 -0.3658  1.0397
  191DG      C1 4371   4.891   1.736   0.212 -0.7549 -0.0783 -0.0441
  191DG      C2 4372   5.163   1.124   0.093  0.2597  0.0824  0.4499
  191DG      H3 4373   4.821   1.654   0.196 -0.0255 -1.0711  1.4682
  191DG      H4 4374   4.916   1.795   0.124 -2.0990 -0.5683 -0.7713
  191DG      H5 4375   4.854   1.810   0.283  1.7273  1.4623 -0.2563
  191DG      H6 4376   5.258   1.153   0.047  0.9199  0.0898  1.7859
  191DG      H7 4377   5.183   1.019   0.114 -0.6538 -0.5922 -1.7459
  191DG      H8 4378   5.090   1.120   0.012  1.4418 -0.5913 -0.6274
  191DG      O9 4379   5.006   1.677   0.286  0.2930  0.4848  0.0337
  191DG     O10 4380   5.131   1.215   0.198  0.6895 -0.6176 -0.0535
  191DG     C11 4381   4.958   1.600   0.395 -0.1123  0.2508 -0.4507
  191DG     C12 4382   5.240   1.242   0.289 -0.3177  0.0197  0.4135
  191DG     H13 4383   4.888   1.523   0.365 -2.0016  1.2528  1.1496
  191DG     H14 4384   4.910   1.670   0.463  0.0833  0.0332 -0.0791
  191DG     H15 4385   5.325   1.301   0.256  1.2249 -0.8980  2.4753
  191DG     H16 4386   5.281   1.147   0.323  1.4331  1.2126  1.7947
  191DG     C17 4387   5.077   1.526   0.459 -0.4665  0.2905 -0.1410
  191DG     C18 4388   5.176   1.318   0.403 -0.4706  0.9799  0.3595
  191DG     O19 4389   5.113   1.437   0.357 -0.1123  0.3385 -0.5780
  191DG     H20 4390   5.049   1.480   0.554  0.2513 -0.6627 -0.3714
  191DG     H21 4391   5.155   1.598   0.483 -0.3350  0.1240 -0.0669
  191DG     H22 4392   5.108   1.242   0.442 -0.8542  0.6267 -0.9505
  191DG     H23 4393   5.260   1.346   0.467  1.6679  1.3932 -2.4269
  192DG      C1 4394   4.593   4.008   1.315  0.0439 -0.2315  0.0759
  192DG      C2 4395   4.621   4.563   1.401  0.4351  0.0441  0.0980
  192DG      H3 4396   4.693   3.966   1.313 -0.9315 -2.7276  0.0433
  192DG      H4 4397   4.599   4.109   1.356  1.6265  0.1774 -1.0655
  192DG      H5 4398   4.540   4.014   1.220 -0.9245 -1.3270  0.5158
  192DG      H6 4399   4.721   4.584   1.439  0.9231  1.7131 -1.8776
  192DG      H7 4400   4.636   4.564   1.293  0.8961  1.4197  0.1488
  192DG      H8 4401   4.563   4.649   1.435  1.8764  0.2434  2.1887
  192DG      O9 4402   4.514   3.933   1.408 -0.0563 -0.2437  0.2674
  192DG     O10 4403   4.565   4.440   1.436  0.0711 -0.5931 -0.3070
  192DG     C11 4404   4.575   3.941   1.539  0.6523 -1.1357 -0.4691
  192DG     C12 4405   4.541   4.432   1.579 -0.0034 -0.7441  1.0248
  192DG     H13 4406   4.684   3.934   1.533  0.6616 -0.7048 -0.8008
  192DG     H14 4407   4.548   3.852   1.596 -0.3028  0.5025  1.7943
  192DG     H15 4408   4.470   4.513   1.590 -0.1855 -0.3641 -2.1514
  192DG     H16 4409   4.635   4.454   1.630  0.6789 -1.9023  0.3234
  192DG     C17 4410   4.531   4.060   1.633  0.5611 -0.6006 -0.4651
  192DG     C18 4411   4.480   4.296   1.611 -0.2002 -0.8462 -0.1306
  192DG     O19 4412   4.571   4.187   1.592 -0.1326  0.2462  0.2255
  192DG     H20 4413   4.568   4.046   1.734 -1.6525 -0.9044  0.3718
  192DG     H21 4414   4.422   4.057   1.642  0.6499 -2.2261  0.4609
  192DG     H22 4415   4.447   4.304   1.715 -2.4913 -0.9518 -0.7774
  192DG     H23 4416   4.391   4.273   1.552 -0.9870  0.7273  0.3545
  193DG      C1 4417   2.704   2.131   0.137 -0.1031 -0.2532 -0.3508
  193DG      C2 4418   3.157   2.557   0.175  0.0971 -0.2725  0.8169
  193DG      H3 4419   2.617   2.090   0.187 -0.9984  2.3880  0.4087
  193DG      H4 4420   2.770   2.051   0.104 -0.7488 -1.1222  0.4304
  193DG      H5 4421   2.652   2.192   0.063 -1.6966  0.6506  1.4290
  193DG      H6 4422   3.055   2.582   0.203  0.3272 -1.3510  2.8188
  193DG      H7 4423   3.219   2.639   0.212  0.0394 -0.5514  1.5471
  193DG      H8 4424   3.164   2.553   0.067 -1.6593 -0.2684  0.6779
  193DG      O9 4425   2.769   2.221   0.221  0.1647  0.2042 -0.0943
  193DG     O10 4426   3.197   2.434   0.231  0.4770  0.4695 -0.6732
  193DG     C11 4427   2.818   2.150   0.331  0.1031  0.2341  0.3067
  193DG     C12 4428   3.200   2.415   0.373 -0.1215 -0.0150  0.1453
  193DG     H13 4429   2.889   2.074   0.298  1.2000  1.7449 -0.9864
  193DG     H14 4430   2.750   2.081   0.381  1.6034 -1.9675 -0.5539
  193DG     H15 4431   3.245   2.505   0.415  1.2238 -0.7821  0.4187
  193DG     H16 4432   3.262   2.327   0.392 -0.8202 -0.9766 -1.7385
  193DG     C17 4433   2.893   2.231   0.431 -0.1492  0.5367 -0.0548
  193DG     C18 4434   3.056   2.398   0.428  0.3275 -0.5407 -0.3440
  193DG     O19 4435   2.993   2.298   0.354  0.0328 -0.1677 -0.2802
  193DG     H20 4436   2.921   2.178   0.522 -0.8363  0.7881  0.3109
  193DG     H21 4437   2.826   2.304   0.477 -0.7396  0.7690 -1.2416
  193DG     H22 4438   3.064   2.384   0.536 -1.7145  2.0146  0.2298
  193DG     H23 4439   3.002   2.491   0.415 -0.6458 -0.7976  1.5353
  194DG      C1 4440   5.454   1.989   3.743 -1.1847 -0.3398  0.2089
  194DG      C2 4441   5.370   1.496   3.085  0.3212  0.6311 -0.0919
  194DG      H3 4442   5.492   1.971   3.843  0.8239  3.4607  0.3165
  194DG      H4 4443   5.376   2.064   3.757  0.8180  1.5800  1.8003
  194DG      H5 4444   5.528   2.038   3.679 -0.0767 -1.2969  0.7446
  194DG      H6 4445   5.351   1.402   3.034  1.5839 -0.2672  1.0208
  194DG      H7 4446   5.287   1.565   3.100 -0.9825 -0.4906 -1.7766
  194DG      H8 4447   5.443   1.549   3.024  2.3007 -1.3308  0.4503
  194DG      O9 4448   5.402   1.871   3.681  0.4417 -0.0126 -0.1417
  194DG     O10 4449   5.437   1.463   3.209  0.2361 -0.6295  0.4473
  194DG     C11 4450   5.314   1.903   3.576 -0.0872 -0.1151  0.6722
  194DG     C12 4451   5.453   1.577   3.288 -0.3340  0.2167 -0.7052
  194DG     H13 4452   5.356   1.966   3.497  0.5917 -1.8151 -0.3776
  194DG     H14 4453   5.227   1.954   3.618 -1.3031  0.7757 -2.5640
  194DG     H15 4454   5.497   1.660   3.233 -1.8001  0.9891 -0.7715
  194DG     H16 4455   5.525   1.542   3.362 -0.9114 -0.3411 -0.3890
  194DG     C17 4456   5.260   1.775   3.520  0.7162 -0.2440 -0.0735
  194DG     C18 4457   5.328   1.614   3.366 -0.3384  0.0456 -0.3392
  194DG     O19 4458   5.359   1.731   3.430 -0.1067  0.1674 -0.5116
  194DG     H20 4459   5.169   1.794   3.465  0.9718  1.9616  0.1930
  194DG     H21 4460   5.242   1.703   3.600 -0.4578  2.3172  2.1105
  194DG     H22 4461   5.244   1.636   3.301 -1.0719 -1.1869  0.1579
  194DG     H23 4462   5.292   1.536   3.434  0.2400 -1.1033 -1.3193
  195DG      C1 4463   3.846   3.527   4.297 -0.0200  0.2082  0.6910
  195DG      C2 4464   4.072   4.017   3.762  0.0281 -0.3269 -0.1131
  195DG      H3 4465   3.882   3.475   4.385 -2.3734  0.2914  1.7750
  195DG      H4 4466   3.871   3.457   4.217  1.9086 -0.3791  1.7512
  195DG      H5 4467   3.738   3.531   4.306 -0.0015  1.9595  0.5914
  195DG      H6 4468   4.064   4.116   3.719  0.7670 -0.9427 -1.7683
  195DG      H7 4469   4.175   3.985   3.781 -0.4285 -3.3930 -2.0398
  195DG      H8 4470   4.039   3.947   3.685  1.2483  0.5336 -1.4834
  195DG      O9 4471   3.916   3.641   4.274  0.0197 -0.0868 -0.3375
  195DG     O10 4472   3.982   4.004   3.872  0.0866  0.4362 -0.1093
  195DG     C11 4473   4.029   3.625   4.185  0.1154  0.2375 -0.3717
  195DG     C12 4474   4.036   4.055   3.994  0.3278 -0.3249 -0.6434
  195DG     H13 4475   3.989   3.606   4.085  0.2681 -1.7597 -0.0804
  195DG     H14 4476   4.086   3.538   4.218 -2.7070 -0.7749  2.2682
  195DG     H15 4477   3.947   4.076   4.054  0.5175  0.0898 -0.5055
  195DG     H16 4478   4.078   4.155   3.980 -0.6353  0.0062 -1.3004
  195DG     C17 4479   4.116   3.750   4.172  0.6004 -0.1983 -0.7007
  195DG     C18 4480   4.121   3.960   4.072 -0.0993 -0.3429  0.0192
  195DG     O19 4481   4.036   3.859   4.128  0.5147  0.2596  1.0097
  195DG     H20 4482   4.192   3.731   4.096 -0.5301  0.1571 -1.9687
  195DG     H21 4483   4.166   3.786   4.261 -1.8241  0.4453  0.4923
  195DG     H22 4484   4.195   3.922   4.002 -2.6414  0.0246 -3.1142
  195DG     H23 4485   4.160   4.009   4.160  0.1022 -0.6536  0.1029
  196DG      C1 4486   3.317   5.437   0.962 -0.2671  0.3724 -0.3757
  196DG      C2 4487   3.330   5.558   1.662  0.5672 -0.4931  0.0857
  196DG      H3 4488   3.318   5.503   0.875 -1.5817  0.6554 -0.1899
  196DG      H4 4489   3.280   5.338   0.935 -1.1834  0.9469 -1.3106
  196DG      H5 4490   3.420   5.417   0.990 -0.6031 -2.1295 -0.7359
  196DG      H6 4491   3.329   5.455   1.698  0.0879 -0.4910  0.0834
  196DG      H7 4492   3.436   5.585   1.658  0.6450 -0.6200  0.9947
  196DG      H8 4493   3.286   5.614   1.744  1.8118  1.8734 -0.7613
  196DG      O9 4494   3.237   5.470   1.074 -0.3905  0.4808 -0.4054
  196DG     O10 4495   3.258   5.573   1.538 -0.2512  0.0139  0.4109
  196DG     C11 4496   3.097   5.492   1.053 -0.0935 -0.2554  0.2149
  196DG     C12 4497   3.121   5.543   1.552 -0.5795  0.8460  0.8622
  196DG     H13 4498   3.059   5.409   0.993  0.2210 -1.9907  2.3084
  196DG     H14 4499   3.083   5.590   1.008  2.1998  0.7585  1.5412
  196DG     H15 4500   3.076   5.612   1.623  0.9513  2.1774  0.5877
  196DG     H16 4501   3.118   5.439   1.583 -0.3904  0.8071  0.7454
  196DG     C17 4502   3.020   5.495   1.186 -0.1537  0.2745  0.4501
  196DG     C18 4503   3.046   5.545   1.419  0.2466  0.1962 -0.0203
  196DG     O19 4504   3.111   5.513   1.297 -0.3561  0.0655 -0.6278
  196DG     H20 4505   2.961   5.405   1.200 -0.2208  0.4806  1.5484
  196DG     H21 4506   2.947   5.575   1.177 -0.4204 -0.0595 -0.4445
  196DG     H22 4507   2.963   5.475   1.424  0.5134 -0.2839 -1.7157
  196DG     H23 4508   3.001   5.644   1.404 -0.9605 -0.6172 -2.2648
  197DG      C1 4509   3.862   1.387   5.358  0.2318 -0.1060  0.6619
  197DG      C2 4510   4.114   1.334   6.037 -0.2295  0.0960  0.4570
  197DG      H3 4511   3.810   1.459   5.295  1.5633  0.2391 -0.0953
  197DG      H4 4512   3.824   1.287   5.336 -2.0479  1.0183 -0.9674
  197DG      H5 4513   3.964   1.395   5.318  0.5815 -0.8778  1.3815
  197DG      H6 4514   4.101   1.387   6.131 -4.6948  0.4289 -0.1369
  197DG      H7 4515   4.060   1.240   6.049  0.5959 -0.6169 -1.0339
  197DG      H8 4516   4.220   1.310   6.028 -0.3965 -0.7402  0.5824
  197DG      O9 4517   3.840   1.437   5.497 -0.1926  0.6550  0.9445
  197DG     O10 4518   4.050   1.408   5.932 -0.0364 -0.0243 -0.3854
  197DG     C11 4519   3.866   1.574   5.521 -0.5849 -0.6179 -0.3130
  197DG     C12 4520   4.113   1.528   5.923  0.3211 -0.3524 -0.3010
  197DG     H13 4521   3.791   1.610   5.592 -0.1377 -1.9752  0.8843
  197DG     H14 4522   3.848   1.632   5.430  1.5744  0.0415 -0.3871
  197DG     H15 4523   4.205   1.529   5.983 -0.0934 -1.0920  0.3729
  197DG     H16 4524   4.047   1.604   5.965  0.8575  0.3654 -0.7458
  197DG     C17 4525   4.007   1.601   5.575 -0.7323 -0.6996 -0.7830
  197DG     C18 4526   4.140   1.562   5.775 -0.0918  0.0427 -0.0232
  197DG     O19 4527   4.018   1.549   5.711 -0.2141  0.1704  0.4130
  197DG     H20 4528   4.036   1.706   5.577  0.0550 -0.9182 -0.6720
  197DG     H21 4529   4.091   1.560   5.519 -1.2548 -0.9616 -1.3893
  197DG     H22 4530   4.173   1.666   5.772 -0.8545  0.2682 -1.2723
  197DG     H23 4531   4.214   1.495   5.731 -0.4708 -0.0775 -0.4956
  198DG      C1 4532   1.517   1.225   4.554  0.0823  0.1520 -0.2177
  198DG      C2 4533   1.164   1.921   4.480  0.1349 -0.3089  0.5401
  198DG      H3 4534   1.503   1.238   4.662 -1.1450 -1.6383 -0.1115
  198DG      H4 4535   1.621   1.204   4.532 -0.2827 -0.4888 -1.4100
  198DG      H5 4536   1.458   1.142   4.515  1.9407 -1.2267 -0.2463
  198DG      H6 4537   1.079   1.877   4.531 -0.0105 -0.2953  0.3130
  198DG      H7 4538   1.240   1.970   4.541 -0.2458 -1.1195  1.7056
  198DG      H8 4539   1.114   1.994   4.416  1.1669 -0.9405 -1.0516
  198DG      O9 4540   1.496   1.345   4.483 -0.5264  0.1267 -0.5909
  198DG     O10 4541   1.213   1.807   4.408 -0.4316  0.7707  0.5872
  198DG     C11 4542   1.589   1.448   4.484 -0.1746  0.0432 -0.2595
  198DG     C12 4543   1.331   1.831   4.331  0.7130 -0.0432 -0.1497
  198DG     H13 4544   1.689   1.411   4.464 -0.5217 -0.9224 -0.2625
  198DG     H14 4545   1.600   1.502   4.578 -0.0826 -0.7244  0.1702
  198DG     H15 4546   1.412   1.880   4.386 -1.3688  1.6742  1.5804
  198DG     H16 4547   1.304   1.884   4.240 -0.6180 -0.7346 -0.1838
  198DG     C17 4548   1.555   1.539   4.361  0.0468 -0.1938 -0.4207
  198DG     C18 4549   1.397   1.697   4.285 -0.1626  0.2379  0.2644
  198DG     O19 4550   1.443   1.620   4.394 -0.1890 -0.1234 -0.1079
  198DG     H20 4551   1.538   1.469   4.280 -2.2072 -1.1128  0.7766
  198DG     H21 4552   1.639   1.604   4.332 -0.3020 -0.1522 -1.3593
  198DG     H22 4553   1.320   1.640   4.233 -0.7918  1.0696  0.2770
  198DG     H23 4554   1.472   1.720   4.209 -1.6195  0.6814 -1.0917
  199DG      C1 4555   3.696   4.122   0.686  0.4283 -0.5199  0.4548
  199DG      C2 4556   3.381   4.382   0.175  0.8416  0.0312  0.5251
  199DG      H3 4557   3.728   4.044   0.754  2.8522 -1.1740 -1.3062
  199DG      H4 4558   3.678   4.221   0.729 -1.2917 -0.2170 -0.8341
  199DG      H5 4559   3.779   4.135   0.617 -0.1012  0.7971  0.0328
  199DG      H6 4560   3.373   4.467   0.243 -2.7382  0.5232 -0.3145
  199DG      H7 4561   3.483   4.376   0.137  1.8064 -0.1729  2.9971
  199DG      H8 4562   3.310   4.391   0.092  0.3729 -0.5186  0.8603
  199DG      O9 4563   3.573   4.072   0.629  0.2373 -0.2142  0.1307
  199DG     O10 4564   3.353   4.266   0.253  0.7808 -0.3965 -0.2623
  199DG     C11 4565   3.590   3.948   0.564  0.1666 -0.6825  0.5849
  199DG     C12 4566   3.382   4.143   0.189  0.1772  0.3774 -0.2883
  199DG     H13 4567   3.602   3.871   0.640 -1.7358 -0.1083  1.5413
  199DG     H14 4568   3.671   3.946   0.491  0.3636  0.5394  0.7527
  199DG     H15 4569   3.484   4.136   0.150  0.0886  1.5671 -0.7637
  199DG     H16 4570   3.318   4.127   0.103 -0.0181 -2.3925  0.2627
  199DG     C17 4571   3.462   3.920   0.486  0.9133  0.3123  0.0672
  199DG     C18 4572   3.362   4.021   0.282 -0.1559  0.4941 -1.0996
  199DG     O19 4573   3.443   4.035   0.396 -0.2325 -0.7216  0.5692
  199DG     H20 4574   3.378   3.906   0.554  0.8848  0.2786  0.0249
  199DG     H21 4575   3.487   3.825   0.440 -0.5317 -0.4338  0.7394
  199DG     H22 4576   3.257   4.009   0.309 -0.2243 -0.3844 -1.7006
  199DG     H23 4577   3.390   3.930   0.229  0.0558 -0.3453  0.4029
  200DG      C1 4578   1.690   2.935   0.618  0.4998  0.0490 -0.3318
  200DG      C2 4579   1.777   2.567   1.230 -0.3738 -0.9499 -0.5712
  200DG      H3 4580   1.719   3.020   0.557  0.0823  1.0331  0.8019
  200DG      H4 4581   1.584   2.910   0.614  0.1012  1.4506  0.7390
  200DG      H5 4582   1.749   2.854   0.576 -0.8991 -2.4366  2.0980
  200DG      H6 4583   1.684   2.546   1.283  0.1126  3.4451  2.5611
  200DG      H7 4584   1.801   2.491   1.156  2.0120  0.1947 -1.0553
  200DG      H8 4585   1.852   2.556   1.308 -0.8130  0.7547  0.1429
  200DG      O9 4586   1.717   2.953   0.762 -0.3602  0.2714  0.3012
  200DG     O10 4587   1.770   2.702   1.172 -0.2812  0.3240  0.3750
  200DG     C11 4588   1.847   3.002   0.782 -0.4898 -0.7182  0.5784
  200DG     C12 4589   1.884   2.783   1.213 -0.3456 -0.2200 -0.5966
  200DG     H13 4590   1.859   3.098   0.731  0.5392 -0.4701  1.2521
  200DG     H14 4591   1.925   2.935   0.745 -0.0054 -0.2813  0.7914
  200DG     H15 4592   1.973   2.746   1.163  0.9212  1.8187 -0.0049
  200DG     H16 4593   1.901   2.798   1.320  0.8241  2.3186 -1.0434
  200DG     C17 4594   1.883   3.019   0.928  0.0525 -0.2361 -0.2915
  200DG     C18 4595   1.884   2.920   1.145 -0.1956  0.0642 -0.4806
  200DG     O19 4596   1.861   2.901   1.005  0.6992  0.1429 -0.6186
  200DG     H20 4597   1.836   3.106   0.975  1.7970  1.2589 -1.1571
  200DG     H21 4598   1.988   3.048   0.923 -0.3195  1.3180  0.1578
  200DG     H22 4599   1.810   2.984   1.193 -0.2275 -0.0924 -0.3198
  200DG     H23 4600   1.976   2.974   1.168  1.1395 -2.2161 -0.1080
  201DG      C1 4601   5.177   0.656   4.828  0.1040  0.5528  0.1428
  201DG      C2 4602   4.909   0.202   5.254  0.1775 -0.2328 -0.4229
  201DG      H3 4603   5.255   0.580   4.842 -1.0068 -0.3997  1.4389
  201DG      H4 4604   5.221   0.755   4.836 -1.6736  1.5930 -1.9995
  201DG      H5 4605   5.156   0.646   4.722  0.6563  0.0179  0.0724
  201DG      H6 4606   4.991   0.130   5.255  1.5998  1.3109 -1.2074
  201DG      H7 4607   4.812   0.160   5.281 -0.0031 -1.0541 -2.2056
  201DG      H8 4608   4.899   0.215   5.146  0.1773 -1.4020 -0.5817
  201DG      O9 4609   5.077   0.619   4.919  0.4198  0.0999 -0.2001
  201DG     O10 4610   4.940   0.329   5.309 -0.1677  0.4973  0.8008
  201DG     C11 4611   5.109   0.642   5.056  0.3393  0.1454 -0.5379
  201DG     C12 4612   4.831   0.423   5.324  0.0918  0.6236  0.3042
  201DG     H13 4613   5.173   0.730   5.060 -0.0638  0.4013  2.7909
  201DG     H14 4614   5.156   0.553   5.096 -1.5456  0.4878  2.7594
  201DG     H15 4615   4.865   0.501   5.393 -0.1906 -0.4344  1.6766
  201DG     H16 4616   4.752   0.367   5.374 -0.1428  0.9249  0.2759
  201DG     C17 4617   4.987   0.630   5.151  0.1817  0.5809  0.0870
  201DG     C18 4618   4.799   0.481   5.187  0.6262 -0.7991 -0.2843
  201DG     O19 4619   4.905   0.517   5.104  0.3055  0.5109 -0.3086
  201DG     H20 4620   4.921   0.717   5.143  0.4041  0.8624  1.1436
  201DG     H21 4621   5.016   0.633   5.256  3.4188 -1.5091 -0.6153
  201DG     H22 4622   4.742   0.412   5.125 -1.7258  1.5030 -0.8575
  201DG     H23 4623   4.723   0.558   5.198  0.0030 -1.0439 -2.4217
  202DG      C1 4624   4.236   1.711   4.358  0.1748 -0.2138  0.3436
  202DG      C2 4625   3.744   2.148   4.501 -0.7841 -0.0220 -0.5650
  202DG      H3 4626   4.315   1.694   4.284  1.7225 -0.1600  1.9202
  202DG      H4 4627   4.160   1.635   4.337  1.1681 -1.1352  0.0042
  202DG      H5 4628   4.274   1.691   4.458 -0.0804 -0.9108  0.3052
  202DG      H6 4629   3.780   2.122   4.600 -0.7958  1.7190 -0.0576
  202DG      H7 4630   3.713   2.253   4.506  0.5674  0.3735  0.0116
  202DG      H8 4631   3.668   2.078   4.468  0.7569 -1.4299 -1.2358
  202DG      O9 4632   4.190   1.845   4.356 -0.0230 -0.0669 -0.0800
  202DG     O10 4633   3.861   2.142   4.423 -0.1280 -0.1770 -0.3523
  202DG     C11 4634   4.302   1.940   4.377  0.6570  0.0394  0.5870
  202DG     C12 4635   3.958   2.244   4.458  0.8230 -0.0500  0.3045
  202DG     H13 4636   4.394   1.911   4.326  0.7801 -3.2550  2.4188
  202DG     H14 4637   4.320   1.939   4.484  0.7737 -0.2803  0.5657
  202DG     H15 4638   3.991   2.257   4.561 -0.3930  1.3737  0.5362
  202DG     H16 4639   3.911   2.340   4.440 -1.4869 -1.2933 -0.6855
  202DG     C17 4640   4.259   2.084   4.333 -0.6137  0.8355 -0.2965
  202DG     C18 4641   4.074   2.236   4.359  0.1509 -0.3632  0.0136
  202DG     O19 4642   4.135   2.113   4.390  0.1651  0.2036  0.0351
  202DG     H20 4643   4.242   2.102   4.227 -1.4068  1.5833 -0.0478
  202DG     H21 4644   4.326   2.160   4.373 -0.6727 -1.0479  3.8191
  202DG     H22 4645   4.036   2.238   4.257  3.3125  1.2790 -1.2862
  202DG     H23 4646   4.134   2.327   4.366  2.0711 -1.6226  0.5715
  203DG      C1 4647   3.903   0.221   0.736 -0.3136  0.1698 -0.4090
  203DG      C2 4648   3.438   0.063   0.022 -0.9848 -0.9089 -0.4035
  203DG      H3 4649   3.904   0.254   0.840  1.0298  1.3947 -0.7741
  203DG      H4 4650   4.000   0.244   0.691  1.4383 -4.3115  0.5275
  203DG      H5 4651   3.895   0.112   0.740  1.4909 -0.0052 -0.6792
  203DG      H6 4652   3.527   0.013  -0.018 -0.7401 -0.4221 -0.4692
  203DG      H7 4653   3.372  -0.022   0.044 -1.4800 -0.4302 -0.0064
  203DG      H8 4654   3.390   0.133  -0.045 -1.7870 -0.5826  0.4842
  203DG      O9 4655   3.778   0.268   0.678  0.3251 -0.0228 -0.1821
  203DG     O10 4656   3.471   0.117   0.148 -0.7618 -0.3171  0.7245
  203DG     C11 4657   3.766   0.218   0.545  0.5025 -0.7517 -0.2649
  203DG     C12 4658   3.529   0.241   0.131  0.3272 -0.3663  0.1996
  203DG     H13 4659   3.788   0.111   0.535 -0.5990 -0.9520 -0.7143
  203DG     H14 4660   3.845   0.268   0.490  0.2469 -0.6342 -0.5250
  203DG     H15 4661   3.459   0.305   0.077  0.2124 -0.2598  0.4758
  203DG     H16 4662   3.622   0.227   0.075  0.5755 -0.8462  0.7260
  203DG     C17 4663   3.627   0.262   0.483  0.5521  0.1776  0.0897
  203DG     C18 4664   3.552   0.309   0.260 -0.2881 -0.5396  0.0628
  203DG     O19 4665   3.615   0.215   0.345  0.1884 -0.2227  0.2121
  203DG     H20 4666   3.631   0.371   0.484  0.3000  0.1991 -0.8836
  203DG     H21 4667   3.546   0.224   0.545 -1.1735 -0.8129 -2.6093
  203DG     H22 4668   3.609   0.398   0.233 -0.4540 -1.0732 -2.2633
  203DG     H23 4669   3.461   0.339   0.311 -1.2188 -0.5770 -1.4948
  204DG      C1 4670   1.469   3.225   3.542  0.1547  0.3433  0.2626
  204DG      C2 4671   1.461   3.595   3.010  0.1493  0.4953  0.3738
  204DG      H3 4672   1.490   3.124   3.577 -2.5047  0.1878  1.6225
  204DG      H4 4673   1.399   3.259   3.618 -0.3353 -0.4724  0.1881
  204DG      H5 4674   1.565   3.277   3.537  0.5818 -0.5362 -1.6018
  204DG      H6 4675   1.458   3.593   2.901  0.6083  0.5070  0.3601
  204DG      H7 4676   1.410   3.688   3.037 -0.7372  0.7348 -1.8964
  204DG      H8 4677   1.565   3.615   3.032  0.5097 -0.8706  0.0197
  204DG      O9 4678   1.419   3.226   3.415 -0.2547 -0.0876 -0.1536
  204DG     O10 4679   1.418   3.461   3.050 -0.1908 -0.2566 -0.1310
  204DG     C11 4680   1.293   3.163   3.412 -0.0148  0.5610  0.8389
  204DG     C12 4681   1.284   3.437   3.022  0.3442 -0.3040  0.0493
  204DG     H13 4682   1.228   3.220   3.479  0.9025  0.9204  1.4442
  204DG     H14 4683   1.293   3.058   3.442 -1.2995  0.1300 -0.5449
  204DG     H15 4684   1.256   3.465   2.921 -2.1593  1.0207  0.9967
  204DG     H16 4685   1.230   3.500   3.093  0.0247 -0.3615 -0.1416
  204DG     C17 4686   1.236   3.174   3.270  0.1512  0.8398  0.0142
  204DG     C18 4687   1.252   3.296   3.067 -0.7504 -0.2811  0.7418
  204DG     O19 4688   1.271   3.293   3.210 -0.1459 -0.2465 -0.3517
  204DG     H20 4689   1.128   3.165   3.284  0.2852  2.3845  2.9036
  204DG     H21 4690   1.266   3.088   3.211 -0.8932  0.8726 -0.5917
  204DG     H22 4691   1.155   3.262   3.032 -1.4200  2.2187 -0.0442
  204DG     H23 4692   1.326   3.224   3.030 -1.3637 -1.7901  2.3457
  205DG      C1 4693   4.989   1.043   3.016 -0.0866 -0.3797  1.1096
  205DG      C2 4694   4.811   1.902   3.130 -0.1466  0.5780  0.7905
  205DG      H3 4695   4.947   1.014   3.112 -1.3464 -1.6718  0.2193
  205DG      H4 4696   5.095   1.020   3.017 -0.2652 -1.3906 -0.0611
  205DG      H5 4697   4.957   0.985   2.929  1.6685  1.1440 -0.6365
  205DG      H6 4698   4.735   1.926   3.056  0.1860  0.0790  0.2810
  205DG      H7 4699   4.763   1.858   3.217  1.2232 -3.3674 -0.2370
  205DG      H8 4700   4.871   1.991   3.150  0.5582  0.3190 -0.1178
  205DG      O9 4701   4.982   1.184   3.010 -0.3694  0.3408 -0.6853
  205DG     O10 4702   4.913   1.809   3.090  0.0967  0.0045 -0.2367
  205DG     C11 4703   5.017   1.242   2.884  0.5411  0.0441  0.2183
  205DG     C12 4704   4.870   1.672   3.064 -0.4356  0.1186 -0.6498
  205DG     H13 4705   4.925   1.227   2.828 -0.3223  1.4725  1.1790
  205DG     H14 4706   5.106   1.194   2.843  0.5361 -0.4616  0.7700
  205DG     H15 4707   4.788   1.685   2.993  0.4976  0.9060 -1.6129
  205DG     H16 4708   4.833   1.611   3.147 -0.5301 -1.4138 -1.7778
  205DG     C17 4709   5.049   1.394   2.897 -0.5844  0.5023  0.1964
  205DG     C18 4710   4.984   1.603   2.994 -0.4042 -1.0119 -0.4388
  205DG     O19 4711   4.954   1.464   2.973  0.4624  0.0405 -0.3434
  205DG     H20 4712   5.054   1.428   2.793  0.8729 -2.0548 -0.6781
  205DG     H21 4713   5.151   1.406   2.935 -0.5946  1.1613  0.0291
  205DG     H22 4714   5.024   1.652   2.906  2.5145 -1.3587  0.5971
  205DG     H23 4715   5.067   1.618   3.063 -0.6947  1.7535 -0.5479
  206DG      C1 4716   1.661   1.149   1.549 -0.0959 -0.4873  0.1456
  206DG      C2 4717   1.949   1.228   1.038 -0.1772  0.2073  0.7326
  206DG      H3 4718   1.627   1.182   1.647 -1.4028  0.1569 -0.5133
  206DG      H4 4719   1.755   1.201   1.533  0.1613 -0.9250  0.1969
  206DG      H5 4720   1.689   1.043   1.552 -0.2060 -0.5000  1.2345
  206DG      H6 4721   1.996   1.130   1.047 -0.0379 -0.0791 -2.1966
  206DG      H7 4722   1.848   1.208   1.002 -0.0659 -0.2953  0.7028
  206DG      H8 4723   2.000   1.293   0.966 -0.8979  3.3129  2.8069
  206DG      O9 4724   1.584   1.189   1.441 -0.2936  0.0556 -1.0129
  206DG     O10 4725   1.918   1.295   1.162  0.1410  0.1981  0.7914
  206DG     C11 4726   1.517   1.314   1.459  0.3706 -0.1394  0.5228
  206DG     C12 4727   1.870   1.428   1.159  0.5077  0.2265 -0.5455
  206DG     H13 4728   1.497   1.335   1.565  0.9262  1.8826  0.2658
  206DG     H14 4729   1.425   1.312   1.402  0.7567 -1.4786 -0.0645
  206DG     H15 4730   1.791   1.429   1.083  1.0188 -1.1231 -1.1152
  206DG     H16 4731   1.950   1.497   1.132 -0.9235  1.7001 -1.2196
  206DG     C17 4732   1.604   1.431   1.404  0.1854 -0.1917 -0.0298
  206DG     C18 4733   1.809   1.466   1.295  0.7454 -0.1853  0.1340
  206DG     O19 4734   1.703   1.382   1.312  0.5024 -0.1540  0.1901
  206DG     H20 4735   1.649   1.486   1.487  1.8909 -0.1818 -0.9124
  206DG     H21 4736   1.545   1.510   1.357  0.8826  1.3955  1.6266
  206DG     H22 4737   1.886   1.426   1.361 -0.8774 -3.6606  0.1578
  206DG     H23 4738   1.800   1.574   1.283 -0.0747 -0.4223 -1.8524
  207DG      C1 4739   3.529   0.633   3.996  0.2799 -0.3181  0.1285
  207DG      C2 4740   3.620   1.304   4.100  0.4761  0.1635  0.1088
  207DG      H3 4741   3.568   0.548   3.941 -1.0421  0.0167 -1.4066
  207DG      H4 4742   3.443   0.666   3.937 -0.5506 -2.7125 -0.1029
  207DG      H5 4743   3.495   0.589   4.090 -1.3077  0.1901 -0.1647
  207DG      H6 4744   3.525   1.332   4.055 -0.0978 -1.0763  0.4812
  207DG      H7 4745   3.593   1.297   4.205  0.0524  1.7836  0.1373
  207DG      H8 4746   3.689   1.388   4.092 -1.2368  1.5702 -0.6823
  207DG      O9 4747   3.617   0.747   4.008  0.0977 -0.1926  0.1552
  207DG     O10 4748   3.668   1.186   4.034  0.0956  0.8412 -0.3667
  207DG     C11 4749   3.738   0.707   4.066  0.3076  0.2707  0.1205
  207DG     C12 4750   3.793   1.145   4.089  0.9672  0.2413 -0.8540
  207DG     H13 4751   3.786   0.636   3.999 -2.9593 -1.7901 -0.2372
  207DG     H14 4752   3.709   0.649   4.153  1.4532 -2.4135 -1.1949
  207DG     H15 4753   3.862   1.225   4.117  1.6875 -1.1180  1.4412
  207DG     H16 4754   3.839   1.089   4.007  0.3308 -0.7608 -0.5395
  207DG     C17 4755   3.818   0.838   4.093 -0.5699  0.2432  0.1596
  207DG     C18 4756   3.784   1.049   4.202 -0.4361  0.2149 -0.6325
  207DG     O19 4757   3.726   0.929   4.151  0.2817 -0.1334  0.7522
  207DG     H20 4758   3.865   0.875   4.002  2.9787 -2.8472  0.4856
  207DG     H21 4759   3.903   0.813   4.157 -1.6795 -0.4162  1.4272
  207DG     H22 4760   3.886   1.024   4.234 -0.7118  0.7823  0.7561
  207DG     H23 4761   3.730   1.085   4.289  0.0847 -0.1789 -0.1325
  208DG      C1 4762   3.553   2.991   1.751 -0.5022 -0.2574 -0.1027
  208DG      C2 4763   3.713   2.536   2.221 -0.2804  0.7186 -0.6350
  208DG      H3 4764   3.589   2.917   1.679 -1.6055 -2.0773  1.1352
  208DG      H4 4765   3.597   3.088   1.727 -3.1847  0.4331 -3.0180
  208DG      H5 4766   3.451   3.019   1.723 -0.4824  1.8077  1.6621
  208DG      H6 4767   3.696   2.488   2.317  0.8556 -0.6359 -1.0876
  208DG      H7 4768   3.711   2.444   2.162  0.3719  0.7119 -0.6529
  208DG      H8 4769   3.814   2.574   2.232  0.2919 -1.0779  0.7174
  208DG      O9 4770   3.559   2.948   1.885 -0.1336 -0.2010  0.0057
  208DG     O10 4771   3.616   2.632   2.203 -0.4998 -0.5285  0.2064
  208DG     C11 4772   3.515   3.051   1.974  0.0934 -0.0006 -0.6364
  208DG     C12 4773   3.598   2.715   2.311 -0.7985  0.3487 -0.2837
  208DG     H13 4774   3.409   3.070   1.953  0.2046  0.4068 -0.8254
  208DG     H14 4775   3.554   3.152   1.963 -0.7266  0.1805 -2.1479
  208DG     H15 4776   3.693   2.755   2.347 -1.8078  1.6290  1.0963
  208DG     H16 4777   3.570   2.648   2.392  1.1225 -2.8425 -2.0720
  208DG     C17 4778   3.512   3.002   2.118 -0.3655  0.6629  0.1094
  208DG     C18 4779   3.492   2.818   2.264 -0.3459  0.7636 -1.1430
  208DG     O19 4780   3.521   2.864   2.132  0.5322  0.4734 -0.2176
  208DG     H20 4781   3.431   3.052   2.171  0.8504  2.7626  0.1158
  208DG     H21 4782   3.601   3.046   2.163 -2.1079  1.9815  2.5349
  208DG     H22 4783   3.399   2.763   2.253  0.2121  0.0318 -2.4775
  208DG     H23 4784   3.478   2.892   2.343  0.2942 -0.0584 -0.2247
  209DG      C1 4785   4.950   0.552   3.893 -0.5577 -0.6554 -0.2009
  209DG      C2 4786   4.678   0.018   3.670 -0.5264  0.0571 -0.1060
  209DG      H3 4787   5.007   0.645   3.895 -0.2078 -0.8390  2.4277
  209DG      H4 4788   4.966   0.499   3.988 -1.1269 -2.7664 -1.2165
  209DG      H5 4789   4.842   0.567   3.903 -0.5070 -0.9359  0.9158
  209DG      H6 4790   4.739  -0.041   3.602  1.0423 -1.7676  2.6657
  209DG      H7 4791   4.716  -0.004   3.770  0.2560 -0.1489 -0.4404
  209DG      H8 4792   4.576  -0.017   3.662 -1.7052  3.0339  0.5030
  209DG      O9 4793   5.003   0.469   3.794  0.0340 -0.3504 -0.1183
  209DG     O10 4794   4.669   0.159   3.657 -0.2687  0.3010 -0.2400
  209DG     C11 4795   5.002   0.525   3.659 -0.8644  0.0435 -0.6461
  209DG     C12 4796   4.661   0.215   3.527  0.3598 -0.1449  0.6325
  209DG     H13 4797   5.087   0.479   3.609 -1.1781 -0.5281 -0.6646
  209DG     H14 4798   5.042   0.627   3.660  1.1376 -0.6813 -1.2765
  209DG     H15 4799   4.560   0.200   3.489  0.0732  0.5130  1.1035
  209DG     H16 4800   4.728   0.147   3.475 -1.2061 -1.6383  0.4661
  209DG     C17 4801   4.867   0.518   3.589 -0.3746  0.5021 -0.7586
  209DG     C18 4802   4.699   0.360   3.524  0.0237  1.1410 -0.8075
  209DG     O19 4803   4.822   0.379   3.587  0.3772  0.1300 -0.5016
  209DG     H20 4804   4.881   0.560   3.490 -1.6330  0.3170 -1.0305
  209DG     H21 4805   4.795   0.582   3.641  0.6952 -0.4535  2.0812
  209DG     H22 4806   4.705   0.402   3.424 -2.1069  1.2051 -0.9624
  209DG     H23 4807   4.617   0.413   3.573 -0.0277  0.3161  0.0394
  210DG      C1 4808   5.160   5.232   4.870  0.2946 -0.3323 -0.5565
  210DG      C2 4809   4.527   5.133   4.724  0.3953 -0.1715  0.2414
  210DG      H3 4810   5.221   5.258   4.956 -4.6740  0.8344  3.1128
  210DG      H4 4811   5.172   5.308   4.793 -1.2663 -0.3162 -0.8288
  210DG      H5 4812   5.196   5.139   4.827  0.6776  0.3685 -1.7821
  210DG      H6 4813   4.500   5.220   4.665  0.7579 -0.2329 -0.0198
  210DG      H7 4814   4.564   5.057   4.655  1.0755 -2.5710  3.0518
  210DG      H8 4815   4.430   5.094   4.756 -0.0406  2.2333  2.0552
  210DG      O9 4816   5.030   5.228   4.924  0.0954  0.3135  0.4604
  210DG     O10 4817   4.623   5.155   4.829 -0.6450  0.3291 -0.2590
  210DG     C11 4818   5.005   5.357   4.990  0.0577 -0.4127  0.0261
  210DG     C12 4819   4.573   5.269   4.903  0.0857  0.1610 -0.5702
  210DG     H13 4820   4.987   5.444   4.926 -1.7684 -0.8213 -0.0834
  210DG     H14 4821   5.091   5.372   5.056  1.5736 -2.7969 -1.3049
  210DG     H15 4822   4.470   5.253   4.933  0.4812  0.1754  0.8678
  210DG     H16 4823   4.587   5.360   4.844  0.0550  1.2398  1.0308
  210DG     C17 4824   4.878   5.331   5.073 -0.2258  0.1001 -0.1165
  210DG     C18 4825   4.657   5.268   5.031 -0.1542 -0.5382 -0.2493
  210DG     O19 4826   4.786   5.296   4.977  0.2223  0.4916  0.1284
  210DG     H20 4827   4.850   5.425   5.120 -0.9964  0.7288 -1.7689
  210DG     H21 4828   4.887   5.248   5.144 -0.9311 -1.5040 -1.8075
  210DG     H22 4829   4.627   5.353   5.093 -0.4039 -0.4680 -0.4634
  210DG     H23 4830   4.656   5.175   5.087 -1.0856 -0.6788 -0.4795
  211DG      C1 4831   2.777   1.822   1.774 -0.2350  0.5209 -0.3159
  211DG      C2 4832   2.484   2.405   2.037  0.5728 -0.1840 -0.4601
  211DG      H3 4833   2.785   1.716   1.800 -1.4626  1.4495  4.7525
  211DG      H4 4834   2.827   1.884   1.849 -0.0820  1.3128 -1.0520
  211DG      H5 4835   2.819   1.840   1.675 -0.5039  0.7527 -0.3886
  211DG      H6 4836   2.590   2.387   2.017  1.0056 -0.4807  1.8384
  211DG      H7 4837   2.459   2.498   1.985 -1.5631  0.0212  0.8270
  211DG      H8 4838   2.468   2.399   2.144 -0.5138 -1.9750 -0.6860
  211DG      O9 4839   2.640   1.853   1.774 -0.0401  0.8418 -0.6180
  211DG     O10 4840   2.408   2.298   1.974 -0.2967  0.0880 -0.1062
  211DG     C11 4841   2.566   1.797   1.887 -0.5743  0.4545 -0.0823
  211DG     C12 4842   2.357   2.196   2.064 -0.0364  0.5227 -0.3395
  211DG     H13 4843   2.612   1.810   1.984 -2.2326 -0.2779  0.8520
  211DG     H14 4844   2.546   1.690   1.880  1.9537 -0.0652 -0.3268
  211DG     H15 4845   2.269   2.226   2.121 -0.1396  2.2207 -1.3024
  211DG     H16 4846   2.428   2.179   2.144 -1.8385 -1.6014  0.9043
  211DG     C17 4847   2.436   1.875   1.902  0.2968 -0.0660  0.6605
  211DG     C18 4848   2.331   2.065   1.987 -0.6843  0.2441 -0.0128
  211DG     O19 4849   2.455   2.006   1.952 -0.6395 -0.1953 -0.6529
  211DG     H20 4850   2.375   1.816   1.971 -2.6543  0.1735 -1.5071
  211DG     H21 4851   2.371   1.867   1.814  0.4879 -0.5374  0.5618
  211DG     H22 4852   2.278   1.998   2.055 -0.5643  0.0993 -0.0612
  211DG     H23 4853   2.275   2.090   1.897 -0.4489  1.4790  0.1718
  212DG      C1 4854   3.762   0.407   3.597  0.0820 -0.6484  0.1475
  212DG      C2 4855   3.929   0.018   2.930  0.5852 -0.4439 -0.0186
  212DG      H3 4856   3.698   0.495   3.586  0.2176 -0.5264  0.3121
  212DG      H4 4857   3.830   0.431   3.680  0.8014 -0.1832 -0.5611
  212DG      H5 4858   3.707   0.319   3.628 -0.9785 -0.5788 -1.4574
  212DG      H6 4859   3.933  -0.089   2.951  0.7977 -0.2878  0.7566
  212DG      H7 4860   3.827   0.050   2.909  0.0167 -1.8006  0.5524
  212DG      H8 4861   3.990   0.026   2.840  0.2954  2.0580 -0.0513
  212DG      O9 4862   3.836   0.382   3.479  0.0866  0.4064 -0.1987
  212DG     O10 4863   3.996   0.074   3.046 -0.0782 -0.2238  0.3858
  212DG     C11 4864   3.968   0.325   3.506  0.4708 -0.2393 -0.5085
  212DG     C12 4865   4.002   0.216   3.039 -0.1121 -0.5885  0.2733
  212DG     H13 4866   3.952   0.219   3.528  1.4311 -0.1513  0.7256
  212DG     H14 4867   4.014   0.391   3.580  2.2896 -0.2423 -1.5905
  212DG     H15 4868   3.906   0.259   3.012  0.0971 -1.0117 -1.2695
  212DG     H16 4869   4.070   0.229   2.954 -0.8365 -0.2218 -0.2568
  212DG     C17 4870   4.054   0.340   3.382  0.2913 -0.7751 -0.4249
  212DG     C18 4871   4.073   0.286   3.152  0.1370  0.1982  0.3437
  212DG     O19 4872   3.998   0.264   3.277 -0.3155  0.0814  0.2625
  212DG     H20 4873   4.150   0.295   3.408  0.4482  0.8435  2.1258
  212DG     H21 4874   4.069   0.446   3.363 -1.2190 -0.4606  0.0085
  212DG     H22 4875   4.177   0.254   3.162  0.8465  2.1684 -0.1233
  212DG     H23 4876   4.070   0.395   3.146 -2.6912  0.1131 -1.4239
  213DG      C1 4877   4.235   2.193   1.236 -0.1556 -0.3668  0.1519
  213DG      C2 4878   3.930   2.715   1.068 -0.0201 -0.7935 -0.4809
  213DG      H3 4879   4.191   2.236   1.326 -0.3827 -1.1549  0.4332
  213DG      H4 4880   4.343   2.211   1.235 -0.4745  1.7909 -0.4775
  213DG      H5 4881   4.213   2.086   1.243 -1.9014 -0.0805 -0.5960
  213DG      H6 4882   3.901   2.734   1.171 -1.2746  1.3315 -1.1446
  213DG      H7 4883   4.038   2.727   1.076 -0.0516 -0.6952 -0.1939
  213DG      H8 4884   3.894   2.792   0.999  1.5293  0.6685  0.2464
  213DG      O9 4885   4.174   2.259   1.123  0.3800  0.2053 -0.4469
  213DG     O10 4886   3.895   2.585   1.021 -0.0278 -0.1299  0.0659
  213DG     C11 4887   4.218   2.212   0.996  0.1774 -0.0645 -0.4544
  213DG     C12 4888   3.914   2.561   0.882 -0.5467  0.2645 -0.4896
  213DG     H13 4889   4.160   2.124   0.969 -0.4773  0.5947 -1.2346
  213DG     H14 4890   4.321   2.176   1.007 -0.6788 -2.9018 -0.8571
  213DG     H15 4891   3.885   2.635   0.807  3.1347  0.2476 -2.1486
  213DG     H16 4892   3.845   2.479   0.859 -0.8630  0.1602  0.7637
  213DG     C17 4893   4.203   2.309   0.883 -0.3926  0.0137  0.3659
  213DG     C18 4894   4.059   2.503   0.849 -0.1016 -0.3681 -0.4494
  213DG     O19 4895   4.086   2.381   0.922 -0.0759  0.2818 -0.8184
  213DG     H20 4896   4.196   2.259   0.786 -1.6157  0.6181  0.1190
  213DG     H21 4897   4.293   2.369   0.882  1.0699 -2.0640 -0.5092
  213DG     H22 4898   4.075   2.495   0.741 -0.9949 -0.9516 -0.5463
  213DG     H23 4899   4.138   2.563   0.894  0.3281 -1.1934 -0.0766
  214DG      C1 4900   2.043   0.974   1.319 -0.1953 -0.4589  0.6785
  214DG      C2 4901   1.543   1.293   0.976 -0.2791 -0.2654 -0.0125
  214DG      H3 4902   2.090   0.883   1.356 -1.7403 -2.2571 -1.5284
  214DG      H4 4903   2.056   1.063   1.380 -0.3776 -0.5832  0.9018
  214DG      H5 4904   2.094   1.004   1.228 -0.5220  0.7232  0.8639
  214DG      H6 4905   1.436   1.316   0.979 -0.1268  0.5083 -0.3035
  214DG      H7 4906   1.586   1.388   1.010 -1.8866 -0.3313  2.4561
  214DG      H8 4907   1.563   1.267   0.872  0.9643  1.6867 -0.3240
  214DG      O9 4908   1.903   0.947   1.309  0.2801 -0.4345 -0.5667
  214DG     O10 4909   1.573   1.186   1.064 -0.8647 -0.4453  0.4009
  214DG     C11 4910   1.876   0.835   1.218 -0.6818 -0.5738  0.1223
  214DG     C12 4911   1.516   1.058   1.016  0.0984 -0.1562 -0.5220
  214DG     H13 4912   1.913   0.738   1.253 -0.6322 -0.8998 -0.8061
  214DG     H14 4913   1.924   0.850   1.122 -1.1081 -0.1354 -0.0211
  214DG     H15 4914   1.563   1.016   0.927 -1.0210 -2.5346 -0.0554
  214DG     H16 4915   1.408   1.065   1.007 -0.1449 -0.6304  1.5025
  214DG     C17 4916   1.729   0.817   1.191  0.2891  0.3694 -0.1609
  214DG     C18 4917   1.546   0.950   1.126  0.8830  0.9010 -0.4334
  214DG     O19 4918   1.689   0.939   1.137  0.2299  0.1332 -0.5246
  214DG     H20 4919   1.700   0.792   1.293 -0.1689  0.3852 -0.2852
  214DG     H21 4920   1.711   0.730   1.127  0.4420  0.9311 -0.9779
  214DG     H22 4921   1.509   0.976   1.225  2.8409  0.4047  0.4893
  214DG     H23 4922   1.495   0.855   1.110 -2.0930  2.2403  0.3705
  215DG      C1 4923   0.642   1.725   4.724 -0.6975  0.1735  1.1851
  215DG      C2 4924   0.138   1.983   4.323  0.6266  0.5452 -0.0050
  215DG      H3 4925   0.716   1.733   4.644 -3.0908  2.5585 -0.9873
  215DG      H4 4926   0.587   1.630   4.723  0.8002 -0.7325 -0.3762
  215DG      H5 4927   0.699   1.727   4.817 -0.5609  0.9323  1.0917
  215DG      H6 4928   0.042   1.934   4.342 -0.0664  0.3417 -3.4036
  215DG      H7 4929   0.121   2.075   4.266 -0.9314  0.6455  0.5561
  215DG      H8 4930   0.197   1.922   4.255 -2.4528 -0.4502 -1.9962
  215DG      O9 4931   0.566   1.846   4.720  0.4858  0.3099 -0.2930
  215DG     O10 4932   0.223   2.012   4.429 -0.4113 -0.1800  0.2185
  215DG     C11 4933   0.463   1.852   4.809 -0.3213 -0.8104  0.3450
  215DG     C12 4934   0.166   2.098   4.523  0.0688 -0.4189  0.3056
  215DG     H13 4935   0.483   1.836   4.915  1.2351 -2.2401 -0.1174
  215DG     H14 4936   0.392   1.778   4.772 -0.5981 -0.8518  0.9467
  215DG     H15 4937   0.066   2.058   4.539 -0.2993  1.1572  2.3548
  215DG     H16 4938   0.160   2.197   4.478  1.5873 -0.1104  0.7059
  215DG     C17 4939   0.390   1.982   4.792  0.5334 -0.3276  0.7459
  215DG     C18 4940   0.249   2.105   4.648  0.3212 -0.0839 -0.4027
  215DG     O19 4941   0.305   1.980   4.675  0.1453  0.2975 -0.1932
  215DG     H20 4942   0.462   2.063   4.785 -1.0548  1.0051 -1.9602
  215DG     H21 4943   0.336   2.009   4.883 -0.7859 -0.3193 -0.0030
  215DG     H22 4944   0.332   2.174   4.632 -0.2305  1.1588  1.7008
  215DG     H23 4945   0.184   2.144   4.725 -1.6037 -2.0654 -0.9161
  216DG      C1 4946   1.440   2.982   0.977 -0.0388 -0.1920 -0.9602
  216DG      C2 4947   1.897   2.614   0.771  0.7051 -0.1863  0.2380
  216DG      H3 4948   1.400   3.034   0.890  0.2008  0.4440 -0.6933
  216DG      H4 4949   1.540   3.023   0.988 -0.0135 -0.8227  1.9100
  216DG      H5 4950   1.393   3.001   1.073  2.3184 -1.1854  0.4976
  216DG      H6 4951   1.874   2.682   0.688  0.0487  0.3368  0.8310
  216DG      H7 4952   1.955   2.687   0.827  0.8147  0.4706 -0.6972
  216DG      H8 4953   1.961   2.529   0.750 -0.0361 -1.1845  1.8144
  216DG      O9 4954   1.468   2.842   0.965  0.0244  0.5063  0.3543
  216DG     O10 4955   1.788   2.571   0.848  0.3140 -0.1354  0.1596
  216DG     C11 4956   1.362   2.754   0.922 -0.4905  0.2824 -0.6057
  216DG     C12 4957   1.700   2.485   0.773  0.1501  0.2474  0.5100
  216DG     H13 4958   1.351   2.778   0.816 -0.1259 -1.5168 -1.0895
  216DG     H14 4959   1.266   2.774   0.970  0.4829  0.0787  1.5190
  216DG     H15 4960   1.731   2.384   0.744 -2.3760 -0.3310 -0.4075
  216DG     H16 4961   1.676   2.539   0.681  1.1236 -0.1807 -0.0128
  216DG     C17 4962   1.408   2.603   0.938 -0.0721  0.7225 -0.0156
  216DG     C18 4963   1.575   2.464   0.855 -1.1494 -0.0396 -0.2556
  216DG     O19 4964   1.538   2.598   0.887  0.2719  0.6759  0.5592
  216DG     H20 4965   1.333   2.534   0.898 -1.9443  2.5248  0.1697
  216DG     H21 4966   1.418   2.571   1.042  1.1023 -1.1168 -0.6584
  216DG     H22 4967   1.500   2.413   0.795 -2.9070 -1.1559  2.6877
  216DG     H23 4968   1.603   2.401   0.940  1.7016  0.1326 -0.9461
  217DG      C1 4969   0.519   3.680   5.270 -0.3760 -0.0540 -1.1256
  217DG      C2 4970   0.461   3.914   4.645 -0.3297  0.2171 -0.4820
  217DG      H3 4971   0.496   3.742   5.356  1.5136  0.1126 -0.7126
  217DG      H4 4972   0.590   3.608   5.311  0.2482  0.1406 -1.8391
  217DG      H5 4973   0.425   3.641   5.230 -0.4347 -3.2244  1.6103
  217DG      H6 4974   0.441   3.813   4.681  0.0483  0.0806 -0.6500
  217DG      H7 4975   0.367   3.962   4.619  0.3374  0.9187 -1.6718
  217DG      H8 4976   0.517   3.890   4.555 -1.5813  0.4380 -1.3470
  217DG      O9 4977   0.567   3.788   5.201 -0.3377  0.0414  1.0091
  217DG     O10 4978   0.524   3.994   4.746  0.2769  0.2728 -0.1219
  217DG     C11 4979   0.705   3.801   5.213  0.5314 -0.1944 -0.1610
  217DG     C12 4980   0.662   3.958   4.771 -0.4451  0.0092 -0.5296
  217DG     H13 4981   0.753   3.716   5.164  0.6710 -0.6740  0.7911
  217DG     H14 4982   0.731   3.803   5.319 -0.1794 -3.8937  0.2454
  217DG     H15 4983   0.729   4.008   4.701  0.4727  1.0812  1.0204
  217DG     H16 4984   0.672   3.849   4.777 -2.1807 -0.1511 -0.0917
  217DG     C17 4985   0.744   3.921   5.141 -0.6741 -0.0253 -0.4092
  217DG     C18 4986   0.703   4.014   4.915 -0.0922  0.2261 -0.5473
  217DG     O19 4987   0.666   3.926   5.024  0.0641  0.0393  0.5511
  217DG     H20 4988   0.853   3.925   5.127 -0.5334  0.2394  0.6886
  217DG     H21 4989   0.708   4.013   5.188 -0.8961  1.2500 -2.9008
  217DG     H22 4990   0.811   4.005   4.920  0.0982  1.9393 -1.0112
  217DG     H23 4991   0.686   4.120   4.933 -0.0513  0.0665  0.5119
  218DG      C1 4992   1.818   0.591   2.707  0.5608 -0.2603  0.3741
  218DG      C2 4993   1.789   1.031   1.945  0.4214  0.0132 -0.6599
  218DG      H3 4994   1.800   0.492   2.749 -2.1283  0.0684  0.1581
  218DG      H4 4995   1.817   0.655   2.795 -1.0563  0.8049 -0.3639
  218DG      H5 4996   1.922   0.588   2.673  0.5503 -1.2117  0.3917
  218DG      H6 4997   1.859   1.110   1.970 -0.4989  0.1771  1.6740
  218DG      H7 4998   1.830   0.968   1.866  0.2008  0.9432 -1.5309
  218DG      H8 4999   1.688   1.058   1.912 -0.5379 -1.1239  1.1568
  218DG      O9 5000   1.719   0.621   2.601 -0.3785 -0.2226  0.2139
  218DG     O10 5001   1.757   0.946   2.051  0.2560 -0.3182 -0.1479
  218DG     C11 5002   1.760   0.727   2.524 -0.4952  0.0891 -0.0168
  218DG     C12 5003   1.687   1.016   2.154 -0.1260  0.0300  0.7810
  218DG     H13 5004   1.855   0.708   2.475 -0.8937 -0.4648 -0.5898
  218DG     H14 5005   1.787   0.806   2.595 -0.9543  1.5457 -1.3993
  218DG     H15 5006   1.609   1.073   2.103  0.3366 -0.3072 -0.3049
  218DG     H16 5007   1.754   1.085   2.206  1.4160 -0.1007 -0.9337
  218DG     C17 5008   1.654   0.773   2.428 -0.4659 -0.0207  0.4679
  218DG     C18 5009   1.616   0.918   2.246 -0.6502 -0.2658  0.2652
  218DG     O19 5010   1.705   0.871   2.345 -0.1654  0.3956  0.4883
  218DG     H20 5011   1.562   0.804   2.479 -0.2005  1.7731 -0.0907
  218DG     H21 5012   1.623   0.688   2.367  0.9807 -1.6783  1.9289
  218DG     H22 5013   1.540   0.983   2.289 -1.4712  0.5878 -2.3117
  218DG     H23 5014   1.564   0.835   2.198 -0.6739 -0.3981  0.5142
  219DG      C1 5015   4.036   4.276   3.264  0.4390 -0.0595  0.3188
  219DG      C2 5016   3.540   4.383   3.750  0.0941 -0.2036 -0.0819
  219DG      H3 5017   4.056   4.279   3.372  0.7547  3.0874  0.2823
  219DG      H4 5018   4.051   4.379   3.231  1.6698 -0.1568  0.5163
  219DG      H5 5019   4.095   4.201   3.212 -1.4752 -2.6376  1.6295
  219DG      H6 5020   3.590   4.461   3.694  1.1293 -0.4485  0.4743
  219DG      H7 5021   3.434   4.403   3.766  0.4279  0.2198  1.9433
  219DG      H8 5022   3.586   4.373   3.849 -0.7195  0.8404  0.4229
  219DG      O9 5023   3.896   4.252   3.243 -0.4679  0.4633  0.6263
  219DG     O10 5024   3.553   4.265   3.668  0.3042 -0.2931 -0.3601
  219DG     C11 5025   3.841   4.124   3.294  0.1388 -0.3541  0.6883
  219DG     C12 5026   3.483   4.282   3.552  0.8374  0.3399  0.1679
  219DG     H13 5027   3.876   4.090   3.392 -1.6633 -3.4734  0.3614
  219DG     H14 5028   3.864   4.045   3.224 -0.0719  1.2726 -1.3045
  219DG     H15 5029   3.501   4.382   3.511  3.0723  0.0721  0.3655
  219DG     H16 5030   3.377   4.266   3.570  0.7099 -1.6323 -1.8960
  219DG     C17 5031   3.693   4.126   3.301  0.2907 -0.1581  0.5063
  219DG     C18 5032   3.521   4.182   3.452  0.2690  0.1645 -0.3775
  219DG     O19 5033   3.660   4.179   3.432 -0.0820  0.6081 -0.5833
  219DG     H20 5034   3.642   4.032   3.282  1.0660 -0.2720 -1.1980
  219DG     H21 5035   3.649   4.195   3.230 -0.6690 -1.5537 -0.2908
  219DG     H22 5036   3.472   4.086   3.464 -2.7691  1.4835 -1.3488
  219DG     H23 5037   3.483   4.218   3.356 -0.4970 -2.5479 -1.1850
  220DG      C1 5038   2.018   3.462   0.152  1.3819 -0.2438  0.4776
  220DG      C2 5039   2.330   3.779  -0.410 -0.0760  2.0241  0.1486
  220DG      H3 5040   1.995   3.392   0.071  0.6855  0.2938  0.2034
  220DG      H4 5041   1.958   3.415   0.231 -0.1420 -1.2153 -1.1808
  220DG      H5 5042   2.123   3.473   0.177  1.3390 -1.2894  1.1931
  220DG      H6 5043   2.372   3.879  -0.412  2.0682  1.1751  0.2219
  220DG      H7 5044   2.407   3.712  -0.373 -2.7649 -0.4951  1.6508
  220DG      H8 5045   2.313   3.741  -0.511  1.3956 -1.5830  1.1037
  220DG      O9 5046   1.967   3.590   0.103  0.6709  0.3944  0.3280
  220DG     O10 5047   2.233   3.758  -0.313 -0.0387 -0.5462  0.1802
  220DG     C11 5048   2.041   3.636  -0.007 -0.0118  0.1500  0.0719
  220DG     C12 5049   2.116   3.830  -0.364 -0.0078  0.0787 -0.2346
  220DG     H13 5050   2.030   3.562  -0.086  3.8827  1.8824 -2.3651
  220DG     H14 5051   2.147   3.650   0.013 -0.0906 -0.8029  1.3151
  220DG     H15 5052   2.091   3.791  -0.462  1.3681  1.6072 -1.2284
  220DG     H16 5053   2.142   3.935  -0.377  2.0572 -0.3467  0.1311
  220DG     C17 5054   1.973   3.763  -0.045  0.4547 -0.3171 -0.4798
  220DG     C18 5055   2.000   3.790  -0.279  0.0588  0.0186 -0.3552
  220DG     O19 5056   2.031   3.837  -0.143  0.4171  0.2669  0.2574
  220DG     H20 5057   1.963   3.823   0.045  2.3137 -1.7487  0.7634
  220DG     H21 5058   1.876   3.729  -0.082 -0.3618 -0.0102  1.2607
  220DG     H22 5059   1.913   3.831  -0.330  0.5157 -0.9421 -1.9761
  220DG     H23 5060   2.001   3.682  -0.287  1.4509  0.0122 -0.4056
  221DG      C1 5061   4.539   3.947   3.400  0.5248  0.3613 -0.2618
  221DG      C2 5062   5.337   3.791   3.368 -0.1242 -0.5747  0.2251
  221DG      H3 5063   4.524   3.860   3.465 -1.0439  0.7566 -0.0438
  221DG      H4 5064   4.544   3.901   3.301 -0.2068  0.6502 -0.4389
  221DG      H5 5065   4.442   3.996   3.409  0.3710  0.4251 -1.9704
  221DG      H6 5066   5.357   3.699   3.312  0.1103 -0.1102 -0.4726
  221DG      H7 5067   5.406   3.862   3.322  1.0337 -0.7165  1.6768
  221DG      H8 5068   5.364   3.794   3.474  0.6605 -0.8561  0.0404
  221DG      O9 5069   4.650   4.027   3.440  0.7174  0.1048 -0.3860
  221DG     O10 5070   5.208   3.854   3.351  0.3782 -0.0266 -0.0104
  221DG     C11 5071   4.765   3.944   3.452 -0.1710 -0.7646  0.2727
  221DG     C12 5072   5.171   3.841   3.217 -0.0178 -0.0326  1.1787
  221DG     H13 5073   4.746   3.862   3.522 -1.0491  0.1231  1.1022
  221DG     H14 5074   4.844   3.999   3.502 -0.3166 -0.7078  0.4386
  221DG     H15 5075   5.164   3.736   3.189 -0.8512 -0.1763  1.8640
  221DG     H16 5076   5.225   3.894   3.138 -2.9099 -1.0879 -1.7128
  221DG     C17 5077   4.818   3.912   3.316  0.5785  0.6775  0.6734
  221DG     C18 5078   5.026   3.888   3.201  0.0240 -0.1360 -0.7287
  221DG     O19 5079   4.951   3.864   3.322  0.3306 -0.9683  0.1840
  221DG     H20 5080   4.816   3.998   3.249  0.9777 -1.4438 -2.2574
  221DG     H21 5081   4.753   3.833   3.279  2.5841 -0.7475  0.0501
  221DG     H22 5082   5.024   3.994   3.178  1.3919  0.1147  0.1926
  221DG     H23 5083   4.977   3.829   3.123 -0.0699  0.3591 -1.0491
  222DG      C1 5084   2.146   4.097   4.477  0.5545 -0.3577  0.4581
  222DG      C2 5085   1.625   4.444   4.181 -0.7465  0.1198 -0.8361
  222DG      H3 5086   2.146   4.097   4.586  1.2387 -0.5540  0.4649
  222DG      H4 5087   2.227   4.147   4.424  0.2832 -0.7162 -0.3044
  222DG      H5 5088   2.168   3.993   4.451 -0.4880 -0.0212 -2.0765
  222DG      H6 5089   1.580   4.351   4.145 -0.7190 -0.2502  0.0640
  222DG      H7 5090   1.546   4.516   4.203  0.1481  1.6946 -2.4668
  222DG      H8 5091   1.692   4.482   4.104 -0.9587 -3.4140 -2.9864
  222DG      O9 5092   2.024   4.132   4.416  0.5019 -0.1053 -0.2335
  222DG     O10 5093   1.694   4.411   4.305 -0.2310 -0.1094 -0.7394
  222DG     C11 5094   1.909   4.087   4.480 -0.2030  0.8266 -0.5146
  222DG     C12 5095   1.615   4.412   4.429 -0.3932  0.2628 -0.0489
  222DG     H13 5096   1.931   3.988   4.521 -1.1758 -0.2605 -2.4464
  222DG     H14 5097   1.838   4.070   4.398 -0.3295 -0.9667 -0.0896
  222DG     H15 5098   1.509   4.391   4.412 -0.1644 -0.2905 -0.8677
  222DG     H16 5099   1.620   4.504   4.487  0.2627  0.3071 -0.1741
  222DG     C17 5100   1.852   4.176   4.586 -0.2547 -0.3418 -0.1582
  222DG     C18 5101   1.664   4.295   4.509 -0.6690  0.9718  0.7756
  222DG     O19 5102   1.801   4.304   4.544 -0.7957  0.0972 -0.2331
  222DG     H20 5103   1.934   4.197   4.654 -1.4113  4.2083  0.1686
  222DG     H21 5104   1.772   4.132   4.645  0.0419 -0.6594  0.0095
  222DG     H22 5105   1.599   4.281   4.595  1.2601  0.2126  2.1891
  222DG     H23 5106   1.648   4.206   4.448  0.5612  0.5239  1.0728
  223DG      C1 5107   2.921   4.059   2.751  0.2166  0.5281 -0.4079
  223DG      C2 5108   2.551   4.503   2.951 -0.3657  0.4628 -0.3930
  223DG      H3 5109   3.028   4.073   2.769  0.5670  0.1794 -1.9950
  223DG      H4 5110   2.895   4.103   2.655 -0.3209 -2.2885 -1.6633
  223DG      H5 5111   2.913   3.952   2.733 -0.0123  0.1924  1.4822
  223DG      H6 5112   2.521   4.592   3.008 -1.0060 -1.0429  1.7618
  223DG      H7 5113   2.577   4.540   2.852  0.0403  2.6826  0.4704
  223DG      H8 5114   2.463   4.441   2.934  0.1773  0.0600 -1.7786
  223DG      O9 5115   2.842   4.101   2.855  0.0729 -0.6750 -0.1062
  223DG     O10 5116   2.648   4.426   3.010  0.0721 -0.3519  0.1558
  223DG     C11 5117   2.856   4.028   2.978  0.4920  0.4469 -0.3533
  223DG     C12 5118   2.619   4.372   3.140 -0.0515  0.4071  0.5952
  223DG     H13 5119   2.957   4.037   3.015 -0.3664  1.9220  1.8140
  223DG     H14 5120   2.828   3.923   2.966  0.1355  0.5996 -0.9462
  223DG     H15 5121   2.533   4.305   3.132  2.7027 -3.6506  1.9014
  223DG     H16 5122   2.591   4.448   3.212 -0.1709  2.6975 -1.7050
  223DG     C17 5123   2.772   4.092   3.093 -0.0210 -0.0636  0.2853
  223DG     C18 5124   2.749   4.310   3.203 -0.5955 -0.1798 -0.0376
  223DG     O19 5125   2.804   4.230   3.099  0.8123 -0.3561  0.1828
  223DG     H20 5126   2.806   4.038   3.182 -0.6285 -0.1006  0.5029
  223DG     H21 5127   2.666   4.069   3.085  0.3284 -3.2862  2.8788
  223DG     H22 5128   2.804   4.404   3.210 -0.9048 -0.0874  1.7699
  223DG     H23 5129   2.729   4.261   3.298 -0.1598 -3.6506 -1.6039
  224DG      C1 5130   4.029   3.299   4.006 -0.0610  0.5115  0.3497
  224DG      C2 5131   4.561   3.554   3.513 -0.6496  0.7046 -0.2761
  224DG      H3 5132   3.999   3.222   3.934  0.4494 -0.0239  0.7088
  224DG      H4 5133   3.938   3.347   4.042 -1.6261 -0.0248 -2.5165
  224DG      H5 5134   4.071   3.252   4.094  0.4882 -0.1232 -0.2410
  224DG      H6 5135   4.466   3.552   3.459 -0.1743 -2.0404 -1.1635
  224DG      H7 5136   4.625   3.641   3.497 -0.5391  0.5527 -0.6729
  224DG      H8 5137   4.612   3.471   3.465 -0.3032  1.5593 -1.4329
  224DG      O9 5138   4.108   3.398   3.949  0.3022 -0.2139  0.0068
  224DG     O10 5139   4.547   3.535   3.652  0.3296  0.2166 -0.2517
  224DG     C11 5140   4.242   3.362   3.929  0.7693  0.0338  0.1900
  224DG     C12 5141   4.498   3.649   3.723 -0.8662  0.7768  0.4693
  224DG     H13 5142   4.245   3.289   3.848  0.5202 -0.0260  0.2314
  224DG     H14 5143   4.274   3.303   4.015  0.1125  1.6672  1.6052
  224DG     H15 5144   4.530   3.747   3.687  2.8091  0.3691  2.1369
  224DG     H16 5145   4.510   3.649   3.832 -1.8507  0.5659  0.5888
  224DG     C17 5146   4.325   3.487   3.901 -0.0976  0.2883 -0.4355
  224DG     C18 5147   4.344   3.645   3.717  0.3164  0.5887  0.1003
  224DG     O19 5148   4.289   3.527   3.769 -0.1418 -0.1660  0.6797
  224DG     H20 5149   4.431   3.474   3.925 -0.9558 -2.1749  2.5425
  224DG     H21 5150   4.295   3.557   3.979  2.4342 -0.8439  1.7324
  224DG     H22 5151   4.312   3.726   3.782  1.0489  0.8221  0.1745
  224DG     H23 5152   4.311   3.669   3.616  1.4152 -1.4202 -0.7948
  225DG      C1 5153   0.553   2.775   1.588 -0.5327 -0.3338 -0.0983
  225DG      C2 5154   0.274   1.970   1.357 -0.2363 -0.3965 -0.6636
  225DG      H3 5155   0.598   2.736   1.497 -2.9069 -2.4926 -0.4960
  225DG      H4 5156   0.603   2.866   1.620  0.6676 -0.9688 -0.1179
  225DG      H5 5157   0.450   2.802   1.564 -1.3040 -1.6383  1.4815
  225DG      H6 5158   0.202   2.039   1.314 -1.2275 -0.3285  1.0163
  225DG      H7 5159   0.299   1.897   1.280  0.6770 -1.9284  1.0032
  225DG      H8 5160   0.225   1.912   1.435 -0.5515 -0.8635 -1.2000
  225DG      O9 5161   0.568   2.686   1.696 -0.2253 -0.7004 -0.1508
  225DG     O10 5162   0.378   2.045   1.418  0.0215 -0.3341 -0.1511
  225DG     C11 5163   0.488   2.571   1.689 -0.3053 -0.4983  0.1260
  225DG     C12 5164   0.341   2.161   1.489 -1.1300  0.3560  0.3776
  225DG     H13 5165   0.389   2.579   1.646 -0.3416  0.4731  0.3727
  225DG     H14 5166   0.468   2.548   1.794  0.1215 -1.1541  0.0720
  225DG     H15 5167   0.295   2.121   1.579 -0.1179 -0.1231  0.7015
  225DG     H16 5168   0.264   2.218   1.438 -0.3677 -0.3084 -1.6284
  225DG     C17 5169   0.552   2.452   1.615 -0.0169  0.0213  0.1210
  225DG     C18 5170   0.465   2.239   1.518 -1.1095 -0.2988 -0.3530
  225DG     O19 5171   0.449   2.347   1.605  0.1993 -0.5822 -0.4591
  225DG     H20 5172   0.638   2.420   1.673 -0.4512 -1.8678 -0.2124
  225DG     H21 5173   0.577   2.480   1.512  1.1249 -1.3422 -0.0076
  225DG     H22 5174   0.536   2.170   1.565  0.3583  0.3984 -1.4559
  225DG     H23 5175   0.504   2.262   1.419  1.3023 -2.2988  0.0294
  226DG      C1 5176   0.383   2.610   4.423 -0.5525 -0.6042 -0.4090
  226DG      C2 5177   1.066   2.792   4.513  0.2660  0.3949  0.0035
  226DG      H3 5178   0.355   2.506   4.437 -1.9289 -0.4531 -1.7891
  226DG      H4 5179   0.318   2.651   4.346 -0.0955 -0.9923 -1.0097
  226DG      H5 5180   0.349   2.665   4.511  1.2026 -0.7587  0.4217
  226DG      H6 5181   1.062   2.699   4.571 -0.7359  0.6844  0.4350
  226DG      H7 5182   1.170   2.815   4.490  1.0549 -1.6321  1.2915
  226DG      H8 5183   1.017   2.865   4.577 -0.5771 -1.4234  1.5591
  226DG      O9 5184   0.523   2.624   4.401 -0.2847 -0.1384  0.4606
  226DG     O10 5185   0.980   2.787   4.398 -0.3794 -0.0258 -0.0320
  226DG     C11 5186   0.564   2.548   4.285  0.1902 -0.3048  0.0628
  226DG     C12 5187   0.987   2.662   4.317  0.4111 -0.2966  0.0180
  226DG     H13 5188   0.512   2.578   4.194 -1.2574 -1.6473  0.4028
  226DG     H14 5189   0.532   2.447   4.307  1.2930 -0.5432  0.6834
  226DG     H15 5190   0.979   2.569   4.374  0.0281 -2.0047 -2.6816
  226DG     H16 5191   1.088   2.666   4.276 -0.1218  0.8303 -1.2473
  226DG     C17 5192   0.709   2.537   4.253  0.6389 -0.0302 -0.2572
  226DG     C18 5193   0.899   2.659   4.192 -0.5380 -0.2184 -0.1222
  226DG     O19 5194   0.763   2.667   4.238  0.0232 -0.0970  0.5573
  226DG     H20 5195   0.727   2.481   4.161  0.2571  0.6114 -0.7326
  226DG     H21 5196   0.762   2.491   4.336  0.1428 -0.3110 -0.0877
  226DG     H22 5197   0.921   2.748   4.132  0.8506 -1.3847 -1.4141
  226DG     H23 5198   0.908   2.569   4.133  1.4575  0.3589 -0.7523
  227DG      C1 5199   0.912   4.815   4.111  0.0486 -0.8768 -0.3592
  227DG      C2 5200   0.727   4.394   3.810  0.4657  0.5069 -0.0418
  227DG      H3 5201   0.847   4.855   4.034  2.2948  2.2676 -0.7836
  227DG      H4 5202   1.010   4.858   4.092 -0.0552  0.3642  1.6194
  227DG      H5 5203   0.879   4.852   4.208  0.9053 -0.5842 -0.1714
  227DG      H6 5204   0.657   4.446   3.876 -0.1684  1.5084 -1.4496
  227DG      H7 5205   0.723   4.456   3.720 -2.2557 -1.8029 -1.6735
  227DG      H8 5206   0.690   4.296   3.781  0.1978  0.4242  0.5560
  227DG      O9 5207   0.934   4.673   4.109 -0.4381 -0.5648  0.2729
  227DG     O10 5208   0.858   4.393   3.871 -0.3618  0.1609 -0.3028
  227DG     C11 5209   0.999   4.633   4.223 -0.3259  0.0239  0.1783
  227DG     C12 5210   0.867   4.311   3.987  0.3878 -0.1827  0.3779
  227DG     H13 5211   0.941   4.664   4.310 -2.3846  0.8888 -1.4147
  227DG     H14 5212   1.104   4.665   4.226  0.3289 -2.0234  0.6876
  227DG     H15 5213   0.848   4.210   3.951 -1.4797  0.0549  0.5588
  227DG     H16 5214   0.795   4.335   4.066  0.9880  1.7151  0.3743
  227DG     C17 5215   1.002   4.485   4.212  0.1010 -0.0599 -1.0704
  227DG     C18 5216   1.009   4.310   4.048  0.0360  0.0886  0.0880
  227DG     O19 5217   1.057   4.440   4.089  0.1111 -0.0437 -0.4013
  227DG     H20 5218   0.904   4.451   4.245  0.7236 -0.5082  0.3806
  227DG     H21 5219   1.070   4.446   4.287 -0.4697  0.7822 -0.0916
  227DG     H22 5220   0.997   4.250   4.139  0.7746 -0.2708 -0.0447
  227DG     H23 5221   1.071   4.261   3.973 -2.8077 -2.1755 -1.0002
  228DG      C1 5222   4.352   4.383   5.165  0.2728 -0.8594  0.3470
  228DG      C2 5223   4.428   4.031   5.743  0.5450  0.1565 -0.1565
  228DG      H3 5224   4.409   4.394   5.073 -0.6806  0.9634 -0.0527
  228DG      H4 5225   4.415   4.442   5.232 -0.5903  1.3102 -0.6756
  228DG      H5 5226   4.259   4.437   5.151 -0.4087 -1.8304  0.9948
  228DG      H6 5227   4.376   3.946   5.788  0.0894  0.2098 -0.5682
  228DG      H7 5228   4.536   4.017   5.747  0.3483 -1.5006  0.0217
  228DG      H8 5229   4.397   4.124   5.791 -0.5005  0.6851 -1.7578
  228DG      O9 5230   4.344   4.252   5.212 -0.6018 -0.5503  0.3338
  228DG     O10 5231   4.415   4.047   5.592  0.2176 -0.0149 -0.3176
  228DG     C11 5232   4.298   4.161   5.120  0.0386  0.6376  0.3188
  228DG     C12 5233   4.411   3.920   5.526  0.6423  0.3411  0.6760
  228DG     H13 5234   4.378   4.129   5.054 -0.5133 -1.8860  0.7713
  228DG     H14 5235   4.225   4.205   5.052 -1.4814 -2.9396 -0.5830
  228DG     H15 5236   4.367   3.841   5.587  0.5606 -0.2274 -0.1059
  228DG     H16 5237   4.512   3.902   5.490  0.6446  0.9316  0.3721
  228DG     C17 5238   4.264   4.042   5.210 -0.0434 -0.0345 -0.4394
  228DG     C18 5239   4.328   3.922   5.398  0.1386  0.0151  1.0209
  228DG     O19 5240   4.354   4.033   5.312 -0.2265  0.0349  0.5746
  228DG     H20 5241   4.260   3.958   5.141 -0.2690  0.1092 -0.6027
  228DG     H21 5242   4.160   4.049   5.242 -0.3729 -2.0883 -0.9282
  228DG     H22 5243   4.342   3.835   5.334  0.3351  1.4270 -0.9844
  228DG     H23 5244   4.226   3.909   5.433 -0.2163 -0.5415 -0.1446
  229DG      C1 5245   3.942   3.697   3.596  0.1883 -0.1086  0.2576
  229DG      C2 5246   3.685   3.889   4.209  0.5124 -0.3496  0.3241
  229DG      H3 5247   3.891   3.610   3.555 -0.6220  0.2283  0.5382
  229DG      H4 5248   4.017   3.658   3.665 -2.0033 -1.6864  1.8582
  229DG      H5 5249   3.986   3.765   3.524 -0.0728 -0.6840 -0.4605
  229DG      H6 5250   3.590   3.836   4.214 -0.3011  0.9885 -0.4228
  229DG      H7 5251   3.762   3.818   4.242  0.0721 -0.6578  0.7037
  229DG      H8 5252   3.672   3.964   4.287 -1.0372 -0.6350  0.3637
  229DG      O9 5253   3.863   3.770   3.684  0.6201  0.5527  0.3389
  229DG     O10 5254   3.721   3.925   4.072 -0.0976  0.4942  0.7232
  229DG     C11 5255   3.757   3.833   3.612 -0.0287 -0.0209  0.3309
  229DG     C12 5256   3.612   4.015   4.028  0.0627  0.0958  0.0446
  229DG     H13 5257   3.674   3.764   3.599 -0.5819  0.6163  0.4172
  229DG     H14 5258   3.788   3.856   3.510  2.1959  2.2217  1.3901
  229DG     H15 5259   3.614   4.105   4.089  1.8995 -0.6717  1.2108
  229DG     H16 5260   3.514   3.969   4.045 -0.0453  0.5339  0.6323
  229DG     C17 5261   3.698   3.958   3.679  0.2146  0.9945 -0.3260
  229DG     C18 5262   3.642   4.053   3.884  0.3052  0.5376 -0.2644
  229DG     O19 5263   3.677   3.928   3.817  0.4400 -0.1663 -0.1705
  229DG     H20 5264   3.605   3.986   3.630  0.1218  0.6620 -0.3382
  229DG     H21 5265   3.755   4.051   3.672  0.6217  0.8706  1.0364
  229DG     H22 5266   3.553   4.101   3.845  0.2189  0.3022 -0.3601
  229DG     H23 5267   3.726   4.123   3.884  0.4287  0.4079 -1.0766
  230DG      C1 5268   4.130   2.889   2.836  0.3293  0.0399  0.3542
  230DG      C2 5269   3.665   2.406   2.804 -0.3325  0.7994 -0.1077
  230DG      H3 5270   4.196   2.802   2.834  0.7692  0.3515  0.8643
  230DG      H4 5271   4.169   2.970   2.898  1.5498 -0.9525  0.9202
  230DG      H5 5272   4.130   2.932   2.735  0.9707  0.5216  0.5499
  230DG      H6 5273   3.601   2.424   2.718  0.3930  2.1208 -0.3996
  230DG      H7 5274   3.752   2.354   2.763  1.0332  0.9639  2.3376
  230DG      H8 5275   3.610   2.342   2.872 -1.9365  1.7947 -0.4200
  230DG      O9 5276   4.000   2.854   2.878 -0.5219 -0.3682  0.5212
  230DG     O10 5277   3.705   2.528   2.864  0.0309 -0.1176  0.2834
  230DG     C11 5278   3.903   2.953   2.848 -0.3287 -1.0196 -0.0169
  230DG     C12 5279   3.588   2.612   2.887 -0.4937 -0.0232  0.3839
  230DG     H13 5280   3.885   2.944   2.741  1.4625 -1.4428 -0.3061
  230DG     H14 5281   3.930   3.057   2.866 -3.8434  0.0027  0.1927
  230DG     H15 5282   3.514   2.561   2.950  1.5723 -1.1096  2.0458
  230DG     H16 5283   3.543   2.626   2.788  2.6957  1.7913 -0.9437
  230DG     C17 5284   3.771   2.916   2.913  0.2787 -0.0977  0.4233
  230DG     C18 5285   3.626   2.738   2.951  0.0662 -0.2114  0.6899
  230DG     O19 5286   3.740   2.783   2.888 -0.8107 -0.4367 -0.5374
  230DG     H20 5287   3.687   2.981   2.886  1.2740  0.5159 -1.3788
  230DG     H21 5288   3.789   2.919   3.020 -0.3118  0.6514  0.5125
  230DG     H22 5289   3.547   2.813   2.946 -0.6096 -0.8713  1.0939
  230DG     H23 5290   3.652   2.722   3.056  0.8572 -1.7836  0.2913
  231DG      C1 5291   3.202   0.325   1.239 -0.1764  0.9319 -0.7143
  231DG      C2 5292   3.586  -0.134   1.492 -0.0550 -0.8314  0.4153
  231DG      H3 5293   3.180   0.325   1.345 -2.3996  0.8337 -1.1327
  231DG      H4 5294   3.134   0.265   1.179  0.8680 -0.7418 -0.2833
  231DG      H5 5295   3.211   0.428   1.202  0.3812  0.1508 -2.8934
  231DG      H6 5296   3.602  -0.234   1.451  1.2376 -0.2084 -0.6772
  231DG      H7 5297   3.674  -0.107   1.551  0.6437  1.3882 -1.4893
  231DG      H8 5298   3.502  -0.142   1.561 -0.5513  0.4352 -0.0279
  231DG      O9 5299   3.334   0.267   1.223 -0.2359 -0.7402 -0.0672
  231DG     O10 5300   3.574  -0.039   1.386  0.4618  0.0141  0.7292
  231DG     C11 5301   3.386   0.277   1.087  0.1449  0.2601  0.1282
  231DG     C12 5302   3.676  -0.052   1.289 -0.5595 -0.8055  0.6162
  231DG     H13 5303   3.365   0.377   1.050 -0.7288  0.0697  0.0824
  231DG     H14 5304   3.314   0.219   1.029 -0.3487  0.1502  0.8285
  231DG     H15 5305   3.649  -0.139   1.231 -1.8639  0.9983 -1.6481
  231DG     H16 5306   3.777  -0.063   1.331 -0.3113  0.0216  0.2631
  231DG     C17 5307   3.530   0.221   1.080 -0.2142  0.1552 -0.0432
  231DG     C18 5308   3.671   0.072   1.190  0.0987 -1.1216 -0.1366
  231DG     O19 5309   3.538   0.102   1.151  0.1159 -0.1675  0.4496
  231DG     H20 5310   3.597   0.296   1.122 -0.4650  0.0996  0.4650
  231DG     H21 5311   3.550   0.207   0.973 -0.9499  0.7880 -0.2691
  231DG     H22 5312   3.705   0.160   1.244 -1.1443  0.1499 -1.3543
  231DG     H23 5313   3.745   0.071   1.110  2.7118 -2.0047  2.1206
  232DG      C1 5314   5.343   1.467   5.482  0.1851  0.7704  0.0672
  232DG      C2 5315   4.771   1.279   5.629  0.2426 -0.5736 -0.1946
  232DG      H3 5316   5.326   1.390   5.406 -2.8091  0.4806  0.8848
  232DG      H4 5317   5.359   1.422   5.579 -1.1224 -1.4991 -0.6966
  232DG      H5 5318   5.418   1.533   5.438 -0.4365  0.7492 -1.0752
  232DG      H6 5319   4.738   1.352   5.703  2.1015 -1.0898  1.2265
  232DG      H7 5320   4.677   1.248   5.581 -0.3949  0.8037  0.1116
  232DG      H8 5321   4.804   1.193   5.687  0.7500  0.4121  1.0354
  232DG      O9 5322   5.225   1.544   5.474 -0.1848 -0.5176 -0.2560
  232DG     O10 5323   4.858   1.341   5.532  0.2510 -0.0845  0.0824
  232DG     C11 5324   5.181   1.607   5.350 -0.3346 -0.0975 -0.4195
  232DG     C12 5325   4.786   1.431   5.447  0.2738  0.1560  0.0169
  232DG     H13 5326   5.168   1.534   5.270 -0.5800 -1.7288  1.0437
  232DG     H14 5327   5.266   1.672   5.331  0.5876 -0.9936  0.4942
  232DG     H15 5328   4.716   1.486   5.509 -0.3743 -0.0466 -0.5183
  232DG     H16 5329   4.717   1.375   5.385 -1.1013  3.1762 -1.4057
  232DG     C17 5330   5.052   1.685   5.375 -0.7225  0.3678  0.5861
  232DG     C18 5331   4.879   1.518   5.355  0.0570 -0.0554 -0.1802
  232DG     O19 5332   4.960   1.600   5.443 -0.0943  0.2885  0.3426
  232DG     H20 5333   5.012   1.709   5.276 -1.2993 -1.9206  0.2071
  232DG     H21 5334   5.074   1.778   5.428  0.4214  0.3293  0.2110
  232DG     H22 5335   4.937   1.458   5.284 -1.0932 -1.8320  0.3064
  232DG     H23 5336   4.815   1.586   5.298 -0.5886 -0.9173 -0.5173
  233DG      C1 5337   1.750   4.842   3.362  0.2292  0.2266  0.3609
  233DG      C2 5338   1.220   5.032   3.018  0.3907  0.1927  0.5491
  233DG      H3 5339   1.768   4.949   3.354  0.2608  0.3614  1.9345
  233DG      H4 5340   1.812   4.786   3.292 -1.2450  0.2682 -1.0212
  233DG      H5 5341   1.766   4.810   3.465 -3.8618 -0.5811  0.9114
  233DG      H6 5342   1.215   5.007   2.912  0.8655  2.3957 -0.0437
  233DG      H7 5343   1.117   5.058   3.043  0.3657  0.7533 -0.1126
  233DG      H8 5344   1.290   5.115   3.025  2.0881 -1.0519 -0.7272
  233DG      O9 5345   1.613   4.802   3.336 -0.3868 -0.2703  0.4121
  233DG     O10 5346   1.273   4.933   3.101  0.6332 -0.6803 -0.0717
  233DG     C11 5347   1.583   4.665   3.315  0.0137 -0.2311 -0.2279
  233DG     C12 5348   1.186   4.809   3.099  0.0870  0.3674  0.7145
  233DG     H13 5349   1.623   4.596   3.390 -2.2421 -1.3823  0.0064
  233DG     H14 5350   1.629   4.632   3.222  0.5279 -0.9880  0.2817
  233DG     H15 5351   1.201   4.764   3.001  1.5262 -0.5873  1.3315
  233DG     H16 5352   1.081   4.836   3.111  0.2344  1.0802  0.4303
  233DG     C17 5353   1.431   4.638   3.309 -0.7337  0.3330  0.1799
  233DG     C18 5354   1.224   4.702   3.201  0.5377 -0.2191  1.0100
  233DG     O19 5355   1.372   4.699   3.200  0.0325  0.0476 -0.1509
  233DG     H20 5356   1.396   4.681   3.403 -0.1602  0.2886  0.4127
  233DG     H21 5357   1.408   4.531   3.308 -0.8741  0.3570  0.8352
  233DG     H22 5358   1.184   4.715   3.301  0.1120 -1.9363  1.0951
  233DG     H23 5359   1.193   4.603   3.170 -0.4322  0.6064 -0.8299
  234DG      C1 5360   3.224   0.623   2.722 -0.5578  0.3866  0.4978
  234DG      C2 5361   3.622   1.135   2.689 -0.0551 -0.2246  0.0702
  234DG      H3 5362   3.183   0.690   2.648  0.7532  0.6128 -0.0588
  234DG      H4 5363   3.141   0.563   2.759  0.2461 -1.1488 -0.0995
  234DG      H5 5364   3.303   0.568   2.671 -0.7983  0.5100 -0.0044
  234DG      H6 5365   3.714   1.098   2.642 -0.0296  0.5509 -0.5059
  234DG      H7 5366   3.532   1.130   2.628  0.2809  1.6556 -0.6346
  234DG      H8 5367   3.639   1.241   2.706 -0.3895 -0.4897  2.3329
  234DG      O9 5368   3.294   0.696   2.825 -0.3985  0.0759 -0.0678
  234DG     O10 5369   3.594   1.071   2.813 -0.1562 -0.3073 -0.8257
  234DG     C11 5370   3.199   0.750   2.916  0.0708 -0.0972 -0.4934
  234DG     C12 5371   3.479   1.142   2.863 -0.7102  0.4055  0.1246
  234DG     H13 5372   3.171   0.682   2.995 -1.3569  0.5068 -0.4490
  234DG     H14 5373   3.111   0.783   2.861 -0.1012  0.4181  0.0756
  234DG     H15 5374   3.412   1.171   2.782  2.1846 -1.5485 -3.2671
  234DG     H16 5375   3.508   1.231   2.919 -2.9089  0.3827  1.4246
  234DG     C17 5376   3.259   0.867   2.995 -0.5243  0.0963 -0.3990
  234DG     C18 5377   3.394   1.061   2.962 -0.3687 -0.4122 -0.0327
  234DG     O19 5378   3.339   0.944   2.898  0.0000  0.0553 -0.6921
  234DG     H20 5379   3.328   0.840   3.075  0.9054 -0.6595 -1.8313
  234DG     H21 5380   3.179   0.922   3.044 -1.5297  1.3360 -3.1980
  234DG     H22 5381   3.445   1.037   3.055  0.9048 -1.8419 -1.0468
  234DG     H23 5382   3.308   1.124   2.987 -0.3456 -0.4475  0.1363
  235DG      C1 5383   2.225   0.221   2.866 -0.0630  0.4670  0.2987
  235DG      C2 5384   2.449  -0.125   3.337 -0.3489 -0.5679 -0.1987
  235DG      H3 5385   2.157   0.270   2.936 -2.7779 -1.2424 -0.9562
  235DG      H4 5386   2.194   0.236   2.762 -0.5810  0.7381  0.4870
  235DG      H5 5387   2.326   0.262   2.866  0.0243  0.4899 -2.5447
  235DG      H6 5388   2.406  -0.032   3.374  0.8682  0.2444 -0.7483
  235DG      H7 5389   2.439  -0.206   3.409 -0.2168 -0.3258  0.0966
  235DG      H8 5390   2.553  -0.099   3.314 -1.3919  3.1494 -1.4603
  235DG      O9 5391   2.228   0.077   2.891 -0.1021 -0.0634  0.3946
  235DG     O10 5392   2.389  -0.161   3.214  0.1288  0.3829  0.1180
  235DG     C11 5393   2.288  -0.003   2.787  0.3652 -0.5831  0.4617
  235DG     C12 5394   2.463  -0.250   3.136 -1.0399 -0.2659  0.3156
  235DG     H13 5395   2.387   0.039   2.768 -0.1412  1.2557  1.5941
  235DG     H14 5396   2.243  -0.004   2.687 -0.7521 -0.7637  0.9450
  235DG     H15 5397   2.470  -0.345   3.189 -0.2968 -0.5496 -0.2735
  235DG     H16 5398   2.561  -0.212   3.108 -0.5250 -0.8037  1.3344
  235DG     C17 5399   2.298  -0.145   2.836 -0.1616 -0.1977  1.0176
  235DG     C18 5400   2.384  -0.263   3.012 -0.4344  0.5275 -0.2505
  235DG     O19 5401   2.369  -0.136   2.950 -0.0476 -0.2707 -0.1614
  235DG     H20 5402   2.340  -0.210   2.760 -0.1186  2.8356 -1.7808
  235DG     H21 5403   2.201  -0.192   2.852  0.9181 -2.9198  0.0698
  235DG     H22 5404   2.442  -0.332   2.951 -0.5364  1.4759 -1.4556
  235DG     H23 5405   2.288  -0.313   3.032  0.2738 -0.4535  0.8680
  236DG      C1 5406   3.233   3.595   2.938  0.3043 -0.4461 -0.5720
  236DG      C2 5407   2.909   3.379   2.296 -1.0297  0.8857 -0.4199
  236DG      H3 5408   3.330   3.628   2.902  1.2800 -1.6166  0.8405
  236DG      H4 5409   3.261   3.547   3.031 -0.0103 -0.2220 -0.3583
  236DG      H5 5410   3.184   3.682   2.982  0.9373 -1.1202  1.5634
  236DG      H6 5411   2.850   3.467   2.326 -2.9978  0.3624 -2.5005
  236DG      H7 5412   2.976   3.430   2.227 -0.5117  1.7737  0.6928
  236DG      H8 5413   2.845   3.305   2.249  0.9120 -1.7112  0.7808
  236DG      O9 5414   3.156   3.505   2.855  0.3335  1.0191  0.2065
  236DG     O10 5415   2.967   3.331   2.414 -1.2191  0.4809  0.3308
  236DG     C11 5416   3.084   3.565   2.751 -0.5822 -0.1812  0.4488
  236DG     C12 5417   2.873   3.287   2.504  0.5004 -0.1823 -0.8292
  236DG     H13 5418   3.148   3.586   2.665 -2.4649 -1.2587 -1.3154
  236DG     H14 5419   3.045   3.657   2.794 -0.6488  0.2263 -0.4473
  236DG     H15 5420   2.813   3.208   2.460 -2.6824  1.2671  0.5872
  236DG     H16 5421   2.793   3.359   2.525 -0.2919 -1.2006 -0.3127
  236DG     C17 5422   2.969   3.474   2.708  0.2900  0.4388  0.0890
  236DG     C18 5423   2.940   3.241   2.635 -0.2583  0.0836 -0.4320
  236DG     O19 5424   3.026   3.347   2.686  0.0979 -0.1761  0.4792
  236DG     H20 5425   2.918   3.513   2.620  0.9261  1.6768  0.2375
  236DG     H21 5426   2.901   3.461   2.792  3.2781 -2.0538  2.3783
  236DG     H22 5427   2.871   3.218   2.715 -0.5694  0.9658 -0.4447
  236DG     H23 5428   3.001   3.151   2.622 -2.7289 -1.4738 -2.1378
  237DG      C1 5429   3.625   4.838   3.590 -0.1558 -0.4162  0.0458
  237DG      C2 5430   3.611   4.859   2.904 -0.3062 -0.2415  0.4183
  237DG      H3 5431   3.730   4.851   3.616  0.1145 -1.5248 -0.4105
  237DG      H4 5432   3.615   4.731   3.571  0.7475 -0.2087 -1.8300
  237DG      H5 5433   3.586   4.872   3.686  0.1767  2.8733 -0.8751
  237DG      H6 5434   3.638   4.924   2.820 -2.3713 -1.6303 -1.4304
  237DG      H7 5435   3.682   4.782   2.935 -1.7652 -1.6857  0.2539
  237DG      H8 5436   3.528   4.808   2.855  1.4650 -2.7636 -0.1812
  237DG      O9 5437   3.583   4.912   3.480  0.4322 -0.2276  0.4784
  237DG     O10 5438   3.565   4.910   3.027 -0.0266 -0.0785 -0.3498
  237DG     C11 5439   3.440   4.918   3.474 -0.1695  0.1362  0.0402
  237DG     C12 5440   3.453   5.004   3.012  0.2990 -0.5797  0.2227
  237DG     H13 5441   3.409   4.961   3.569  0.0426 -1.5093  0.8733
  237DG     H14 5442   3.392   4.824   3.451  1.2538 -0.4904 -0.5088
  237DG     H15 5443   3.363   4.952   2.978  0.4699  0.1102 -1.3505
  237DG     H16 5444   3.472   5.069   2.926  1.0340  0.3830  1.0805
  237DG     C17 5445   3.400   5.018   3.365 -0.2143  1.4890  0.0366
  237DG     C18 5446   3.413   5.071   3.138 -0.4596 -0.4810  0.4857
  237DG     O19 5447   3.451   4.979   3.234  0.0713  0.7098 -1.0416
  237DG     H20 5448   3.433   5.117   3.396 -0.9801  1.3539  1.3571
  237DG     H21 5449   3.291   5.020   3.362 -0.3688 -1.5971  0.4777
  237DG     H22 5450   3.482   5.155   3.131  0.0206 -0.5979  2.9593
  237DG     H23 5451   3.308   5.098   3.142 -0.3481 -0.0113  0.2251
  238DG      C1 5452   2.857   0.297   4.677 -0.1999 -0.7118  0.2534
  238DG      C2 5453   3.442   0.335   4.479 -0.4050  0.2648  0.8030
  238DG      H3 5454   2.844   0.368   4.595  4.3379  1.6230  1.2487
  238DG      H4 5455   2.887   0.345   4.769  1.5552  0.9872 -1.1221
  238DG      H5 5456   2.756   0.256   4.685 -1.5306  1.5561 -2.6298
  238DG      H6 5457   3.401   0.428   4.437  0.3714 -0.0400 -0.6844
  238DG      H7 5458   3.530   0.367   4.534  0.0982 -0.8262  0.6452
  238DG      H8 5459   3.479   0.276   4.396 -0.9516 -0.8793  1.3554
  238DG      O9 5460   2.960   0.207   4.636  0.0085 -0.1753 -0.5480
  238DG     O10 5461   3.340   0.265   4.545 -0.1348 -0.5673  0.2160
  238DG     C11 5462   2.968   0.101   4.732  0.5021 -0.0463 -0.0530
  238DG     C12 5463   3.388   0.137   4.590  0.9431 -0.4307 -0.0129
  238DG     H13 5464   2.872   0.052   4.748  0.9381 -0.7313  0.5270
  238DG     H14 5465   2.998   0.138   4.830  1.2734 -3.4928  1.1578
  238DG     H15 5466   3.465   0.166   4.661 -1.0803  5.0947  0.4124
  238DG     H16 5467   3.430   0.082   4.506  0.3253 -1.5605  0.3927
  238DG     C17 5468   3.050  -0.006   4.656 -0.2079  0.1561  0.2471
  238DG     C18 5469   3.277   0.071   4.671  0.5208 -0.0104 -0.5499
  238DG     O19 5470   3.154   0.064   4.590 -0.4222 -0.1885  0.3656
  238DG     H20 5471   2.989  -0.046   4.574 -1.8203  2.0801  0.4249
  238DG     H21 5472   3.091  -0.084   4.719 -1.2585  0.6210  1.5414
  238DG     H22 5473   3.299  -0.030   4.706  1.8882  0.7651  0.9689
  238DG     H23 5474   3.263   0.136   4.758  0.7395 -0.2848 -0.3082
  239DG      C1 5475   1.521   4.754   2.838  0.6904  0.2224 -0.0812
  239DG      C2 5476   1.479   5.124   3.365  0.1500 -0.7582 -0.2436
  239DG      H3 5477   1.451   4.715   2.764  1.8228 -0.2536 -0.9446
  239DG      H4 5478   1.512   4.689   2.925 -1.2128  0.7733  0.1678
  239DG      H5 5479   1.622   4.739   2.800  1.2382  0.5641  1.1799
  239DG      H6 5480   1.459   5.021   3.394  0.4058 -0.1450  2.4703
  239DG      H7 5481   1.569   5.155   3.418  1.3064 -0.7737 -2.1052
  239DG      H8 5482   1.400   5.182   3.412  1.0299 -0.4757  0.9640
  239DG      O9 5483   1.478   4.887   2.869  0.2804 -0.1907 -0.7464
  239DG     O10 5484   1.494   5.128   3.225 -0.2134  0.7018 -0.0355
  239DG     C11 5485   1.537   4.983   2.787 -0.6355  0.2718 -0.3900
  239DG     C12 5486   1.559   5.236   3.167 -0.4189 -0.0173 -0.0128
  239DG     H13 5487   1.514   4.973   2.681  1.1946 -1.3827 -0.6957
  239DG     H14 5488   1.645   4.972   2.785 -0.7996 -2.0245 -0.3365
  239DG     H15 5489   1.668   5.231   3.172 -0.3896  0.2602 -0.2602
  239DG     H16 5490   1.543   5.327   3.225 -0.5503  2.4710 -3.5622
  239DG     C17 5491   1.499   5.123   2.830 -0.7820  0.1827  0.2390
  239DG     C18 5492   1.516   5.268   3.023  0.3892 -0.3344  0.4835
  239DG     O19 5493   1.509   5.141   2.968  0.2541  0.7311 -0.2946
  239DG     H20 5494   1.395   5.146   2.806 -0.9815  0.5470  1.4067
  239DG     H21 5495   1.559   5.186   2.765  0.3417 -1.9939 -0.9681
  239DG     H22 5496   1.422   5.321   3.010  0.2164 -0.3617  1.5121
  239DG     H23 5497   1.600   5.315   2.971  0.9597 -1.6050  0.2133
  240DG      C1 5498   1.467   4.420   1.060 -0.8783  0.0717 -0.0352
  240DG      C2 5499   1.502   3.765   1.163  0.5263  0.9591  0.3467
  240DG      H3 5500   1.362   4.393   1.046 -1.4011  2.5563 -1.3973
  240DG      H4 5501   1.497   4.463   0.965 -0.0565 -1.9386 -0.7382
  240DG      H5 5502   1.471   4.503   1.130 -0.9265  0.2838 -0.2850
  240DG      H6 5503   1.393   3.769   1.166  0.4965  1.5052 -0.8659
  240DG      H7 5504   1.542   3.745   1.063  1.0296 -0.2655  0.7727
  240DG      H8 5505   1.522   3.680   1.228  0.1857 -0.6291 -1.5447
  240DG      O9 5506   1.538   4.315   1.117  0.0753  0.0701 -0.5437
  240DG     O10 5507   1.546   3.883   1.221 -0.4657 -0.7484  0.0572
  240DG     C11 5508   1.675   4.321   1.086 -0.5453 -0.2770  0.2123
  240DG     C12 5509   1.686   3.897   1.212  0.2332  0.2916 -0.3335
  240DG     H13 5510   1.726   4.406   1.131  0.9775 -0.0437 -1.8205
  240DG     H14 5511   1.695   4.326   0.979 -1.7988 -3.9857 -0.3460
  240DG     H15 5512   1.717   3.913   1.108  1.3792  1.1498  0.1220
  240DG     H16 5513   1.740   3.813   1.255 -0.2345  0.0177 -0.2717
  240DG     C17 5514   1.745   4.190   1.132  0.6527 -0.2847  0.5261
  240DG     C18 5515   1.736   4.021   1.294  0.6574  0.2799 -0.3837
  240DG     O19 5516   1.673   4.133   1.240  0.9241  0.4135 -0.2711
  240DG     H20 5517   1.849   4.218   1.151  0.5363  0.8614 -0.4057
  240DG     H21 5518   1.752   4.121   1.048  1.6885 -0.0918  0.4356
  240DG     H22 5519   1.708   4.005   1.398 -0.8700  0.9214 -0.6710
  240DG     H23 5520   1.843   4.041   1.297  0.1796  3.0798  0.3387
  241DG      C1 5521   3.307   4.544   2.005 -0.3295  0.2492  0.6699
  241DG      C2 5522   3.824   4.588   2.448 -0.3214 -0.5466  0.2453
  241DG      H3 5523   3.262   4.578   2.098  3.5014  1.4911  2.2691
  241DG      H4 5524   3.232   4.486   1.951 -0.5155  1.7932 -0.8507
  241DG      H5 5525   3.327   4.637   1.950  0.2103 -0.5883 -0.5927
  241DG      H6 5526   3.745   4.624   2.513 -0.2545 -2.7235  1.6229
  241DG      H7 5527   3.887   4.531   2.516  2.2358  1.1783 -0.5164
  241DG      H8 5528   3.877   4.680   2.421  0.9664 -1.2487  0.2629
  241DG      O9 5529   3.420   4.475   2.048  0.2332 -0.2457 -0.7911
  241DG     O10 5530   3.772   4.520   2.334  0.4432  0.0243  0.4601
  241DG     C11 5531   3.491   4.416   1.936  0.3110  0.3895 -0.0328
  241DG     C12 5532   3.867   4.478   2.235 -0.1596 -0.0124 -0.4083
  241DG     H13 5533   3.503   4.487   1.855 -2.1145  0.0225 -0.8214
  241DG     H14 5534   3.424   4.336   1.904  0.3834 -0.5972  2.0839
  241DG     H15 5535   3.956   4.435   2.282  1.4993  1.3945 -2.0742
  241DG     H16 5536   3.907   4.569   2.189  0.1573 -0.1887 -0.4845
  241DG     C17 5537   3.624   4.358   1.992  0.3298  0.2852 -0.4903
  241DG     C18 5538   3.799   4.390   2.138  0.4349 -0.4229 -0.0714
  241DG     O19 5539   3.685   4.450   2.077 -0.0107 -0.0285 -0.3231
  241DG     H20 5540   3.696   4.315   1.922  1.1057  1.4052 -0.4040
  241DG     H21 5541   3.600   4.272   2.054  0.2981  0.3504 -0.4119
  241DG     H22 5542   3.865   4.377   2.053  0.9258 -1.4548  0.4538
  241DG     H23 5543   3.771   4.298   2.188 -0.7570  1.3898  2.8824
  242DG      C1 5544   3.652   4.482   0.414  0.4386  0.2039 -0.2177
  242DG      C2 5545   3.139   4.158   0.516 -0.0507 -0.5266  0.4577
  242DG      H3 5546   3.593   4.561   0.366  1.0167  0.4342 -0.5573
  242DG      H4 5547   3.637   4.390   0.357 -0.7232  0.7267 -0.7923
  242DG      H5 5548   3.752   4.524   0.411  1.3792 -1.9410 -0.1444
  242DG      H6 5549   3.035   4.148   0.549  0.5054 -2.3835  1.7785
  242DG      H7 5550   3.128   4.150   0.408  2.6549 -2.2426  0.2182
  242DG      H8 5551   3.193   4.068   0.546  3.3925  1.1246 -0.3124
  242DG      O9 5552   3.614   4.449   0.549 -0.0466  0.0896  0.0867
  242DG     O10 5553   3.200   4.274   0.567  0.6889 -0.0848 -0.0829
  242DG     C11 5554   3.574   4.566   0.625  0.1550 -0.3437 -0.0396
  242DG     C12 5555   3.134   4.391   0.533 -0.0676 -0.7405 -0.3339
  242DG     H13 5556   3.644   4.646   0.604 -1.1106  0.4077 -1.6244
  242DG     H14 5557   3.581   4.540   0.731  0.5483  0.3499  0.1143
  242DG     H15 5558   3.043   4.379   0.591  0.5844 -0.5811  0.7543
  242DG     H16 5559   3.101   4.400   0.429 -0.6991  2.4599  0.0451
  242DG     C17 5560   3.432   4.609   0.574 -0.1136  0.1849 -0.5007
  242DG     C18 5561   3.216   4.513   0.586  0.2695 -0.2014 -0.2745
  242DG     O19 5562   3.355   4.484   0.575 -0.5789  0.1289 -0.0559
  242DG     H20 5563   3.426   4.657   0.476  0.7823 -0.4002 -0.8506
  242DG     H21 5564   3.392   4.686   0.641  1.6754  0.1680  0.6468
  242DG     H22 5565   3.190   4.607   0.537  2.8956  0.8906  0.2260
  242DG     H23 5566   3.189   4.530   0.690  0.9535 -2.5541  0.3603
  243DG      C1 5567   4.892   0.345   0.779  0.5280 -0.4530 -0.2555
  243DG      C2 5568   4.273   0.057   0.881  0.8096  0.1882 -0.7177
  243DG      H3 5569   4.966   0.276   0.739  1.0860  0.2268 -0.4167
  243DG      H4 5570   4.931   0.358   0.880 -0.0923 -1.2576  0.1049
  243DG      H5 5571   4.880   0.443   0.732 -2.8713 -0.4876  0.2934
  243DG      H6 5572   4.188   0.101   0.828 -0.0019 -0.2712  0.1684
  243DG      H7 5573   4.226  -0.021   0.941 -0.2432  1.2077 -0.1741
  243DG      H8 5574   4.326   0.122   0.950  0.3904 -0.2142 -0.0004
  243DG      O9 5575   4.776   0.269   0.791 -0.1270 -0.5006 -0.0740
  243DG     O10 5576   4.362  -0.011   0.794  0.2578  0.5467  0.0208
  243DG     C11 5577   4.729   0.225   0.667  0.3111  0.1844  0.1248
  243DG     C12 5578   4.471  -0.061   0.873  0.6349 -0.3995 -0.6559
  243DG     H13 5579   4.806   0.187   0.600 -1.3153 -0.2986 -1.5725
  243DG     H14 5580   4.681   0.302   0.607 -0.5385 -0.8547 -0.5759
  243DG     H15 5581   4.436  -0.153   0.919 -0.3331  0.7059  0.9000
  243DG     H16 5582   4.494   0.002   0.959 -0.9752  0.4742 -0.8330
  243DG     C17 5583   4.629   0.114   0.681 -0.0736  0.8496 -0.1667
  243DG     C18 5584   4.583  -0.096   0.776 -0.5459 -0.8030  0.3211
  243DG     O19 5585   4.675   0.010   0.760 -0.5310  0.2115 -0.2852
  243DG     H20 5586   4.593   0.074   0.586  1.9895  1.3196 -1.2083
  243DG     H21 5587   4.550   0.163   0.737 -1.3331 -1.2977  0.0308
  243DG     H22 5588   4.628  -0.176   0.833 -1.3922 -1.6313 -0.1389
  243DG     H23 5589   4.551  -0.128   0.676  0.0950  1.8702 -0.8239
  244DG      C1 5590   1.492   2.903   3.204 -0.1212 -0.3316  0.0934
  244DG      C2 5591   0.940   2.758   2.862 -0.0290  0.3252  0.0713
  244DG      H3 5592   1.600   2.915   3.199 -0.4156  3.1072 -4.1529
  244DG      H4 5593   1.457   2.801   3.223  0.4558 -0.6847 -0.6856
  244DG      H5 5594   1.461   2.968   3.286 -1.5745 -0.9660  0.0806
  244DG      H6 5595   0.913   2.811   2.953  2.2126 -0.0152  1.0001
  244DG      H7 5596   0.872   2.781   2.780  0.5934  1.0635 -0.2417
  244DG      H8 5597   0.931   2.649   2.870  0.3715  0.3440  0.7985
  244DG      O9 5598   1.440   2.945   3.076 -0.4710  0.3157  0.5266
  244DG     O10 5599   1.067   2.799   2.814 -0.2026  0.0134 -0.4150
  244DG     C11 5600   1.505   2.882   2.961  0.6873 -0.6728  0.2570
  244DG     C12 5601   1.065   2.939   2.769 -0.4172  0.3342  0.1263
  244DG     H13 5602   1.482   2.775   2.969 -0.8264 -0.2256  3.0623
  244DG     H14 5603   1.609   2.908   2.943  0.5790 -1.3489 -1.5448
  244DG     H15 5604   1.031   2.998   2.854  1.4009 -1.9609  2.5956
  244DG     H16 5605   1.006   2.962   2.680 -0.6571 -2.3149 -0.4963
  244DG     C17 5606   1.435   2.950   2.846  0.3640 -0.1728  0.0006
  244DG     C18 5607   1.216   2.974   2.751 -0.0801  0.2224  0.4345
  244DG     O19 5608   1.305   2.902   2.841  0.1166  0.3557 -0.0340
  244DG     H20 5609   1.487   2.948   2.750  1.2313  0.7451  0.4326
  244DG     H21 5610   1.429   3.055   2.877  0.7845 -0.5051  1.2530
  244DG     H22 5611   1.252   2.952   2.650  0.9682  0.6842  0.7006
  244DG     H23 5612   1.233   3.080   2.770 -0.7151  0.9345 -2.4783
  245DG      C1 5613   0.495   4.826   5.187 -0.3009  0.0328  0.2826
  245DG      C2 5614   0.831   5.419   5.349  0.2399 -0.2425  0.6514
  245DG      H3 5615   0.545   4.732   5.164  0.6088  0.3210  1.0040
  245DG      H4 5616   0.449   4.849   5.091 -3.2097 -1.1737  1.2761
  245DG      H5 5617   0.411   4.814   5.255 -0.1728 -0.8976  0.2867
  245DG      H6 5618   0.782   5.390   5.442 -1.1486  1.1548  0.3968
  245DG      H7 5619   0.901   5.501   5.362 -2.2887  2.4713 -1.3895
  245DG      H8 5620   0.749   5.465   5.295  1.4565  0.2633 -0.8085
  245DG      O9 5621   0.578   4.933   5.221  0.2517 -0.1499  0.2121
  245DG     O10 5622   0.866   5.302   5.290 -0.5078  0.4457 -0.5277
  245DG     C11 5623   0.607   4.945   5.364  0.1932  1.1130  0.2978
  245DG     C12 5624   0.939   5.222   5.382  0.1035  0.0173 -0.2276
  245DG     H13 5625   0.629   4.845   5.401 -0.8021  1.3981  1.7688
  245DG     H14 5626   0.522   4.968   5.429  0.5121 -1.8308  1.9520
  245DG     H15 5627   0.909   5.218   5.486  0.7379  1.7234  0.0632
  245DG     H16 5628   1.044   5.250   5.394 -0.5140  1.5452  2.1303
  245DG     C17 5629   0.715   5.041   5.399  0.0648  1.0264 -0.4132
  245DG     C18 5630   0.939   5.078   5.337  0.1489 -0.3951  0.2314
  245DG     O19 5631   0.813   5.036   5.296 -0.5781  0.3060  0.4828
  245DG     H20 5632   0.751   5.009   5.497 -1.0214  0.9894 -0.0053
  245DG     H21 5633   0.674   5.141   5.411 -1.4482  0.3140  0.6919
  245DG     H22 5634   0.996   5.065   5.245 -0.2445  1.4309 -0.3171
  245DG     H23 5635   0.978   5.016   5.417  0.2295  0.2116  0.6635
  246DG      C1 5636   3.184   0.683   2.306  0.5989 -0.2226  0.7601
  246DG      C2 5637   3.806   0.296   2.644  0.4705  0.3490  1.0314
  246DG      H3 5638   3.103   0.619   2.343  1.7465 -1.8824  0.4803
  246DG      H4 5639   3.217   0.657   2.206  0.3377  0.7739  0.3980
  246DG      H5 5640   3.147   0.786   2.305  0.4020 -0.2944  0.3004
  246DG      H6 5641   3.725   0.225   2.628 -1.3807  1.9196  2.9410
  246DG      H7 5642   3.889   0.288   2.573 -0.9364  2.9254 -1.0780
  246DG      H8 5643   3.841   0.282   2.746  0.8232  0.3438  0.9109
  246DG      O9 5644   3.286   0.662   2.402  0.5247 -0.4702 -0.1555
  246DG     O10 5645   3.752   0.428   2.611 -0.4035 -0.4410  0.0196
  246DG     C11 5646   3.407   0.723   2.364  0.1217 -0.1721 -0.3829
  246DG     C12 5647   3.656   0.479   2.708  0.2400  0.3758  0.0128
  246DG     H13 5648   3.383   0.825   2.335 -1.4755 -0.2740  0.4363
  246DG     H14 5649   3.451   0.681   2.273  1.1753 -0.0610  0.0688
  246DG     H15 5650   3.701   0.490   2.807 -0.1845 -1.8614  0.4950
  246DG     H16 5651   3.579   0.406   2.732  0.0967  0.9372  1.3521
  246DG     C17 5652   3.501   0.727   2.490 -0.8693  0.3754  0.0255
  246DG     C18 5653   3.601   0.612   2.662 -0.0629  0.2126 -0.6683
  246DG     O19 5654   3.535   0.599   2.537  0.0520  0.2835  0.5205
  246DG     H20 5655   3.446   0.779   2.569 -1.4659  0.4898 -0.4608
  246DG     H21 5656   3.578   0.799   2.461  1.3714 -2.1469 -0.7049
  246DG     H22 5657   3.529   0.640   2.738  1.3617 -1.1879  1.2869
  246DG     H23 5658   3.674   0.694   2.661 -0.2777  0.4129 -0.1899
  247DG      C1 5659   0.359   4.342   3.292  0.0486 -0.0685 -0.8221
  247DG      C2 5660  -0.193   4.712   3.488 -0.8333  0.2308 -0.8943
  247DG      H3 5661   0.407   4.410   3.222  0.9687 -1.0808 -1.2129
  247DG      H4 5662   0.293   4.270   3.243  0.4561 -1.1882  0.2128
  247DG      H5 5663   0.441   4.274   3.315 -0.1148  0.0681  0.2097
  247DG      H6 5664  -0.257   4.664   3.414 -2.6387 -0.8687  1.2557
  247DG      H7 5665  -0.261   4.741   3.569  1.5782 -0.6794  1.6392
  247DG      H8 5666  -0.144   4.795   3.439 -0.3592  0.2018 -0.4773
  247DG      O9 5667   0.305   4.409   3.408 -0.2608  0.9709  0.3310
  247DG     O10 5668  -0.080   4.629   3.532  0.0008 -0.0200 -0.3564
  247DG     C11 5669   0.394   4.475   3.504 -0.4461  0.4063 -0.1991
  247DG     C12 5670  -0.014   4.685   3.644 -0.6034 -0.2618  0.5782
  247DG     H13 5671   0.446   4.558   3.457  0.6462  0.1410  0.4829
  247DG     H14 5672   0.473   4.407   3.537 -0.5940 -1.5129 -3.3980
  247DG     H15 5673  -0.078   4.685   3.732  0.2301  2.8446  1.3127
  247DG     H16 5674   0.019   4.787   3.623 -0.7510 -0.0781  1.2286
  247DG     C17 5675   0.314   4.518   3.629  0.5677 -0.1221 -0.3397
  247DG     C18 5676   0.110   4.601   3.682  0.2284  0.2330  0.0179
  247DG     O19 5677   0.202   4.590   3.585  0.2008  0.1013 -0.1671
  247DG     H20 5678   0.365   4.583   3.700  0.9938  0.8710 -1.5280
  247DG     H21 5679   0.292   4.421   3.674 -1.3742  0.5428  0.2680
  247DG     H22 5680   0.146   4.644   3.775 -1.7451  0.5214  0.6862
  247DG     H23 5681   0.070   4.502   3.701  0.1363  0.1913 -0.3747
  248DG      C1 5682   2.440   3.440   0.899 -0.3291 -0.1776 -0.0922
  248DG      C2 5683   2.675   2.971   1.327  0.0747  0.7104  0.1022
  248DG      H3 5684   2.448   3.349   0.839  0.9631 -0.6881  0.7965
  248DG      H4 5685   2.414   3.533   0.848  1.4812  1.5921  1.9892
  248DG      H5 5686   2.356   3.417   0.965  0.8960 -4.2601  0.3187
  248DG      H6 5687   2.582   2.939   1.281  0.5078  0.2870 -0.5006
  248DG      H7 5688   2.751   2.933   1.259  0.2109  0.8267  0.1880
  248DG      H8 5689   2.683   2.923   1.425  3.1171 -0.0444 -0.3952
  248DG      O9 5690   2.559   3.444   0.978 -0.0272 -0.1837  0.0657
  248DG     O10 5691   2.661   3.116   1.322 -0.0429  0.1922 -0.2804
  248DG     C11 5692   2.551   3.515   1.102 -0.4153 -0.1622  0.3864
  248DG     C12 5693   2.768   3.196   1.365  0.4507 -0.8039 -0.4173
  248DG     H13 5694   2.468   3.482   1.164 -1.2378 -0.7646 -1.0026
  248DG     H14 5695   2.530   3.620   1.083 -0.0580 -0.0059  0.8451
  248DG     H15 5696   2.858   3.158   1.316 -0.0703  1.9204 -3.9802
  248DG     H16 5697   2.776   3.175   1.471  3.0990 -2.9549 -0.9304
  248DG     C17 5698   2.680   3.501   1.175 -0.9181 -0.4169 -0.3877
  248DG     C18 5699   2.745   3.347   1.340 -0.0557  0.6669  0.4642
  248DG     O19 5700   2.688   3.365   1.213 -0.2098 -0.2416 -0.4607
  248DG     H20 5701   2.679   3.573   1.257  1.8247  1.2593 -1.6814
  248DG     H21 5702   2.757   3.526   1.102 -0.9228  0.7620 -0.0109
  248DG     H22 5703   2.686   3.390   1.422  0.6230  0.1939  1.2216
  248DG     H23 5704   2.847   3.385   1.338 -0.2438  1.1704 -1.9038
  249DG      C1 5705   1.387   4.826   1.421 -0.1506  0.0127  0.7736
  249DG      C2 5706   1.083   5.180   1.936 -0.7420  0.5622  0.5743
  249DG      H3 5707   1.324   4.737   1.416 -0.7365  0.4758 -0.2510
  249DG      H4 5708   1.479   4.808   1.478 -0.3952  0.1354  1.2134
  249DG      H5 5709   1.429   4.845   1.323  1.2289 -2.8724  0.6886
  249DG      H6 5710   1.001   5.109   1.940 -1.1629  0.9592 -0.5186
  249DG      H7 5711   1.163   5.147   2.002 -0.8034 -2.0500 -0.5328
  249DG      H8 5712   1.032   5.271   1.967  0.7931  1.7625 -0.2655
  249DG      O9 5713   1.329   4.949   1.461 -0.2865  0.4558 -0.3446
  249DG     O10 5714   1.123   5.193   1.799  0.2110  0.7059  0.2041
  249DG     C11 5715   1.236   5.000   1.374 -0.1848 -0.4865 -0.3023
  249DG     C12 5716   1.017   5.242   1.717  0.6048 -0.7700  0.7103
  249DG     H13 5717   1.151   4.933   1.357 -1.5265 -0.0326  3.6528
  249DG     H14 5718   1.289   5.018   1.281  1.6069 -1.3652  0.5147
  249DG     H15 5719   0.968   5.335   1.746  1.8060  0.4453 -1.0365
  249DG     H16 5720   0.933   5.173   1.704  0.0479 -0.1924  1.1705
  249DG     C17 5721   1.199   5.140   1.415  0.3983 -0.2116 -0.4787
  249DG     C18 5722   1.062   5.247   1.567 -0.4120  0.4292 -0.0842
  249DG     O19 5723   1.127   5.125   1.537 -0.7205 -0.0330  0.8519
  249DG     H20 5724   1.132   5.191   1.347  1.6644  1.8160 -0.2958
  249DG     H21 5725   1.288   5.202   1.430 -0.8308  1.7451 -0.9563
  249DG     H22 5726   0.974   5.264   1.506 -0.9885  1.8798  1.0659
  249DG     H23 5727   1.124   5.336   1.549 -1.4943  0.9102 -1.6070
  250DG      C1 5728   2.482   1.342   0.138 -0.5121  0.3059  0.9236
  250DG      C2 5729   3.040   1.716  -0.023 -0.4133  0.4512 -0.3940
  250DG      H3 5730   2.384   1.303   0.111  0.2121 -2.1550  1.5322
  250DG      H4 5731   2.472   1.421   0.212 -0.2538  0.7668  0.4762
  250DG      H5 5732   2.532   1.256   0.184  0.5246 -1.4641 -3.0960
  250DG      H6 5733   3.109   1.771  -0.086  0.8102 -1.0941 -0.4603
  250DG      H7 5734   3.017   1.788   0.055 -2.6310  0.1884 -0.7290
  250DG      H8 5735   3.103   1.636   0.016 -0.6888 -0.7085 -2.2034
  250DG      O9 5736   2.550   1.376   0.017 -0.6149 -0.4463  0.0271
  250DG     O10 5737   2.933   1.642  -0.082 -0.2534 -0.5578 -0.3093
  250DG     C11 5738   2.477   1.469  -0.059 -0.1597  0.4117  0.1990
  250DG     C12 5739   2.849   1.732  -0.158 -0.4210 -0.3388 -0.4924
  250DG     H13 5740   2.448   1.556  -0.000 -3.0057 -0.4697  0.2884
  250DG     H14 5741   2.382   1.423  -0.089 -1.4484  2.2783  1.1679
  250DG     H15 5742   2.911   1.780  -0.234  1.8718 -1.9198  0.2694
  250DG     H16 5743   2.811   1.802  -0.083  4.0357  2.7664 -0.7272
  250DG     C17 5744   2.561   1.509  -0.180 -0.3267 -0.0912 -0.2812
  250DG     C18 5745   2.746   1.644  -0.235 -1.0492  0.0595 -0.0741
  250DG     O19 5746   2.678   1.578  -0.132 -0.2635  1.1362 -0.3990
  250DG     H20 5747   2.502   1.584  -0.234  1.0613  1.1431 -0.1560
  250DG     H21 5748   2.586   1.422  -0.241 -1.6203 -0.5909 -0.1326
  250DG     H22 5749   2.685   1.712  -0.295 -2.4885 -0.9703  0.1505
  250DG     H23 5750   2.782   1.574  -0.310 -2.2649 -1.2955  0.5429
  251DG      C1 5751   3.901   4.110   5.061  0.6417  0.2381  0.7301
  251DG      C2 5752   3.906   4.234   4.381  0.3871  0.5076 -0.7190
  251DG      H3 5753   3.856   4.209   5.071  0.7961  0.5033 -0.9061
  251DG      H4 5754   4.008   4.127   5.050  0.2892  1.5987 -1.3793
  251DG      H5 5755   3.869   4.063   5.154 -1.2128  0.8478  0.4558
  251DG      H6 5756   4.005   4.270   4.406  0.4598  0.5641 -1.0767
  251DG      H7 5757   3.881   4.213   4.277 -2.8194 -0.2620  0.0782
  251DG      H8 5758   3.848   4.326   4.392 -0.7821 -0.3112  0.2211
  251DG      O9 5759   3.843   4.053   4.948 -0.2784  0.4433  0.1011
  251DG     O10 5760   3.865   4.136   4.477  0.1990  0.4605  1.0712
  251DG     C11 5761   3.884   3.919   4.926 -0.3811 -0.3793  0.2059
  251DG     C12 5762   3.946   4.017   4.447  0.4403  0.1842 -0.7141
  251DG     H13 5763   3.834   3.849   4.992 -0.6743  0.5653  1.0134
  251DG     H14 5764   3.990   3.899   4.944 -0.3735 -0.5164  0.0080
  251DG     H15 5765   4.053   4.032   4.461  0.0887  3.8540 -0.8231
  251DG     H16 5766   3.939   3.996   4.341 -0.4479  0.8227 -0.7955
  251DG     C17 5767   3.865   3.876   4.772  0.3003 -0.1327 -0.4278
  251DG     C18 5768   3.904   3.902   4.551  0.4659 -0.8222 -0.3560
  251DG     O19 5769   3.904   3.969   4.676 -0.1007  0.2728 -0.3921
  251DG     H20 5770   3.763   3.847   4.748  0.0974 -0.3728  0.6836
  251DG     H21 5771   3.921   3.783   4.770  3.0478  1.4149 -0.1986
  251DG     H22 5772   3.803   3.867   4.529 -0.4522  1.4614 -0.0544
  251DG     H23 5773   3.959   3.809   4.554  0.6133 -0.7331  2.4384
  252DG      C1 5774   4.068   4.497   1.849  0.3529  0.1211  0.5577
  252DG      C2 5775   3.597   3.996   2.057 -0.6391 -0.3956 -0.0666
  252DG      H3 5776   4.058   4.522   1.954 -1.8959 -0.2472  0.4897
  252DG      H4 5777   4.008   4.566   1.790  1.9501  2.4695  1.5585
  252DG      H5 5778   4.165   4.518   1.805 -0.4652  1.2055 -0.8552
  252DG      H6 5779   3.577   4.056   2.146 -2.1067 -0.3641 -0.4036
  252DG      H7 5780   3.529   4.041   1.985 -2.8837 -0.5101  1.8866
  252DG      H8 5781   3.572   3.897   2.094 -0.2138  0.5096  2.9011
  252DG      O9 5782   4.029   4.364   1.821 -0.3275 -0.7205  1.3770
  252DG     O10 5783   3.737   4.008   2.023  0.5440 -0.0365 -0.1918
  252DG     C11 5784   4.122   4.271   1.889  0.1109  0.3805 -0.4586
  252DG     C12 5785   3.772   3.941   1.908 -0.2578 -0.6300 -0.0984
  252DG     H13 5786   4.114   4.284   1.997 -1.0460 -1.4082 -0.2829
  252DG     H14 5787   4.228   4.293   1.878  0.5985 -0.6514  1.6353
  252DG     H15 5788   3.705   3.971   1.827 -0.2196  3.0110  1.0645
  252DG     H16 5789   3.762   3.832   1.915 -2.7672 -0.5982 -1.7779
  252DG     C17 5790   4.091   4.122   1.856  0.0732  0.2405 -0.3321
  252DG     C18 5791   3.918   3.965   1.883 -0.0296  0.1616 -0.3465
  252DG     O19 5792   3.952   4.101   1.871  0.2312 -0.1050  0.7240
  252DG     H20 5793   4.146   4.055   1.921 -2.2917 -1.3863  0.1036
  252DG     H21 5794   4.122   4.099   1.754  2.5743  0.3210  0.3441
  252DG     H22 5795   3.978   3.921   1.962  1.5725  0.0510 -1.5514
  252DG     H23 5796   3.944   3.916   1.789  1.9056  0.3409  0.0552
  253DG      C1 5797   4.250   1.676   3.280 -0.4086  0.2404  0.0972
  253DG      C2 5798   3.778   2.101   3.035 -0.5507  0.0746  0.0289
  253DG      H3 5799   4.292   1.689   3.181 -0.2766  2.3249  0.3827
  253DG      H4 5800   4.181   1.592   3.292  0.3758 -0.5371 -0.7810
  253DG      H5 5801   4.344   1.650   3.328  0.3673  1.4510 -0.6995
  253DG      H6 5802   3.811   2.128   2.935 -1.0399 -0.8812 -0.4049
  253DG      H7 5803   3.727   2.005   3.029 -0.7910  0.2106 -0.1487
  253DG      H8 5804   3.708   2.177   3.070  1.4785  2.0974 -0.0865
  253DG      O9 5805   4.209   1.807   3.319  0.0938  0.0411 -0.5138
  253DG     O10 5806   3.884   2.105   3.131 -0.3595  0.3225  0.3483
  253DG     C11 5807   4.146   1.814   3.452  0.0541 -0.0669 -0.4859
  253DG     C12 5808   3.838   2.119   3.266  0.0293  0.2064 -0.3897
  253DG     H13 5809   4.216   1.781   3.529  1.9759  0.5063 -1.9224
  253DG     H14 5810   4.061   1.746   3.462 -1.1812  1.5820  1.0751
  253DG     H15 5811   3.769   2.041   3.297 -0.9832  1.2720  0.1188
  253DG     H16 5812   3.776   2.209   3.273  0.1876  0.2538  0.4993
  253DG     C17 5813   4.103   1.965   3.476  0.3388 -0.3871 -0.1486
  253DG     C18 5814   3.960   2.122   3.361 -0.4634  0.0208  0.1058
  253DG     O19 5815   4.012   1.989   3.373 -0.4411  0.4483  0.4647
  253DG     H20 5816   4.187   2.034   3.474  0.4406 -0.2589  3.2222
  253DG     H21 5817   4.069   1.985   3.578  1.3830  0.4174  0.0541
  253DG     H22 5818   4.031   2.192   3.317 -2.9897  1.3245 -2.1517
  253DG     H23 5819   3.927   2.144   3.462 -0.0429 -1.8693  0.6990
  254DG      C1 5820   5.290   0.000   0.228 -0.6581 -0.3512  0.5852
  254DG      C2 5821   5.902   0.055  -0.076 -0.0272 -0.7181  0.7431
  254DG      H3 5822   5.331  -0.065   0.306 -0.6647 -0.3080  0.6248
  254DG      H4 5823   5.262  -0.059   0.141 -1.5089 -1.4869  1.5935
  254DG      H5 5824   5.197   0.042   0.266 -1.9454 -4.3285  2.3127
  254DG      H6 5825   5.955  -0.027  -0.026 -0.0032  0.0991  2.1106
  254DG      H7 5826   5.840   0.011  -0.154 -0.2004 -1.1017  1.0884
  254DG      H8 5827   5.970   0.125  -0.124 -0.3394  0.8225  2.4302
  254DG      O9 5828   5.389   0.102   0.191 -0.0941  0.0142 -0.8501
  254DG     O10 5829   5.806   0.125   0.004  0.2893  0.6197 -0.3328
  254DG     C11 5830   5.426   0.178   0.305 -0.1798  0.1975 -0.4787
  254DG     C12 5831   5.868   0.196   0.112 -0.1318  0.2250 -0.0875
  254DG     H13 5832   5.474   0.116   0.380  0.5347  1.4552  0.1348
  254DG     H14 5833   5.339   0.223   0.351  0.1728  0.5549 -0.1578
  254DG     H15 5834   5.953   0.252   0.074 -1.0311  0.2558 -2.2051
  254DG     H16 5835   5.914   0.122   0.177 -0.8707 -1.3530 -1.2788
  254DG     C17 5836   5.532   0.287   0.257  0.5826  0.1152 -0.4856
  254DG     C18 5837   5.763   0.291   0.181  1.0032 -0.4495  0.3731
  254DG     O19 5838   5.641   0.221   0.199 -0.7154  0.3291  0.0279
  254DG     H20 5839   5.568   0.338   0.346  0.3571 -1.2398  0.4099
  254DG     H21 5840   5.487   0.361   0.191 -2.3680 -0.8289  0.3162
  254DG     H22 5841   5.818   0.329   0.267  3.0888 -1.0555 -0.6351
  254DG     H23 5842   5.749   0.379   0.118  0.8402 -1.5288 -1.1562
  255DG      C1 5843   0.620   1.561   0.794  0.2087  0.1724  0.1294
  255DG      C2 5844   0.586   2.155   0.466  0.1753 -0.1787 -0.1581
  255DG      H3 5845   0.664   1.649   0.842 -0.0580 -0.2761  1.2206
  255DG      H4 5846   0.692   1.494   0.747  1.1332  1.7872 -0.8737
  255DG      H5 5847   0.562   1.512   0.872 -0.9463 -0.1267 -0.8894
  255DG      H6 5848   0.529   2.235   0.419  4.2354  3.5565  0.6362
  255DG      H7 5849   0.627   2.203   0.555 -0.3721  1.1190 -0.5842
  255DG      H8 5850   0.668   2.160   0.395 -1.1619  2.1787 -1.6823
  255DG      O9 5851   0.533   1.629   0.692 -0.5781  0.7489 -0.3756
  255DG     O10 5852   0.522   2.031   0.485 -0.2805  0.2801  0.5487
  255DG     C11 5853   0.518   1.556   0.574 -0.0603 -1.1061 -0.5288
  255DG     C12 5854   0.501   1.969   0.360 -0.0110  0.0205  0.4379
  255DG     H13 5855   0.486   1.454   0.593  1.3369 -1.2008  1.8209
  255DG     H14 5856   0.612   1.554   0.519  0.0349  0.5614 -0.4677
  255DG     H15 5857   0.596   1.937   0.318 -0.6694  0.7287 -1.7573
  255DG     H16 5858   0.446   2.027   0.286  0.8134  0.2007 -0.0357
  255DG     C17 5859   0.418   1.626   0.476  0.1021  0.1023  0.3379
  255DG     C18 5860   0.410   1.840   0.377  0.7852  0.1624  0.7134
  255DG     O19 5861   0.477   1.754   0.468  0.1775  0.6097 -0.1917
  255DG     H20 5862   0.321   1.636   0.525 -1.7671 -1.6048 -2.6712
  255DG     H21 5863   0.398   1.582   0.378 -0.4278  1.7517 -0.3426
  255DG     H22 5864   0.312   1.867   0.417 -0.7503 -0.3125 -2.3960
  255DG     H23 5865   0.390   1.793   0.281  0.9766 -0.9653  1.2122
  256DG      C1 5866   2.078   1.757   0.918 -0.1158  0.3089  0.5301
  256DG      C2 5867   2.138   1.422   1.514 -0.7559  0.3768 -0.5911
  256DG      H3 5868   1.976   1.724   0.932 -0.3304  1.4054  1.6640
  256DG      H4 5869   2.093   1.761   0.810 -0.9091 -2.1478  0.2779
  256DG      H5 5870   2.085   1.852   0.971  3.0611 -0.3055  1.4521
  256DG      H6 5871   2.204   1.507   1.533 -0.0136 -0.1770 -0.6259
  256DG      H7 5872   2.037   1.447   1.546 -0.9955  0.2181 -1.2271
  256DG      H8 5873   2.168   1.337   1.575  0.5925  0.4220 -1.1457
  256DG      O9 5874   2.170   1.665   0.973 -0.4002  0.5440 -0.0783
  256DG     O10 5875   2.143   1.382   1.377  0.1955 -0.3794 -0.1440
  256DG     C11 5876   2.158   1.534   0.919  0.3092 -0.8038 -1.1509
  256DG     C12 5877   2.277   1.356   1.341 -0.7948  0.0705  0.1504
  256DG     H13 5878   2.184   1.542   0.813  1.1311  0.6801 -0.8721
  256DG     H14 5879   2.057   1.493   0.931  0.9523 -1.4719  3.6672
  256DG     H15 5880   2.316   1.274   1.401  2.0918 -0.9075 -2.7344
  256DG     H16 5881   2.332   1.449   1.360 -0.4577 -0.3502  1.3431
  256DG     C17 5882   2.250   1.436   0.993 -0.0744  0.0362  0.3653
  256DG     C18 5883   2.272   1.314   1.197  0.3993 -0.3051 -0.1669
  256DG     O19 5884   2.220   1.428   1.127  0.1783  0.2844  0.2339
  256DG     H20 5885   2.355   1.464   0.983 -0.4479  1.9994  1.4542
  256DG     H21 5886   2.236   1.335   0.953  1.1920  0.9189 -2.5720
  256DG     H22 5887   2.367   1.276   1.157 -0.6613 -1.7655 -1.4151
  256DG     H23 5888   2.196   1.238   1.178 -0.6945  0.7442 -0.0780
  257DG      C1 5889   4.610   0.319   3.943  0.1202  0.6071 -0.0558
  257DG      C2 5890   5.129   0.132   3.557 -0.0593 -0.9236 -0.2987
  257DG      H3 5891   4.559   0.242   3.885 -0.2978 -0.6929  1.9471
  257DG      H4 5892   4.599   0.419   3.902  0.8326 -0.5373 -3.3449
  257DG      H5 5893   4.559   0.311   4.039 -2.2243  2.1162 -1.0997
  257DG      H6 5894   5.218   0.192   3.540  0.0336 -0.4435  1.6851
  257DG      H7 5895   5.147   0.027   3.535 -0.1013 -0.5270 -2.4521
  257DG      H8 5896   5.045   0.177   3.504  0.1143  0.5314  0.6027
  257DG      O9 5897   4.751   0.304   3.962 -0.3622 -0.5155 -0.0479
  257DG     O10 5898   5.094   0.146   3.695  0.8989 -0.2716  0.3814
  257DG     C11 5899   4.787   0.187   4.035 -0.1280 -0.2745  0.1403
  257DG     C12 5900   5.161   0.063   3.779 -0.2283  0.6925 -0.1664
  257DG     H13 5901   4.722   0.104   4.010 -3.9808  2.7745 -0.8372
  257DG     H14 5902   4.752   0.217   4.134 -1.1115  2.0903 -0.8404
  257DG     H15 5903   5.270   0.065   3.779 -0.1575 -0.0090  2.2493
  257DG     H16 5904   5.133  -0.040   3.757  0.6073  0.5872 -0.7640
  257DG     C17 5905   4.934   0.167   4.047  0.4955  0.2391  0.0110
  257DG     C18 5906   5.130   0.107   3.925  0.4967 -0.0458 -0.3501
  257DG     O19 5907   4.987   0.117   3.926 -0.1018  0.1993 -0.0751
  257DG     H20 5908   4.953   0.091   4.123  2.9989  0.8307  0.0794
  257DG     H21 5909   4.972   0.262   4.083  0.2337  2.0379 -3.9661
  257DG     H22 5910   5.171   0.032   3.992 -0.1919 -0.2173 -0.1190
  257DG     H23 5911   5.171   0.204   3.953 -1.1062  0.3825  0.6189
  258DG      C1 5912   2.525   1.437   4.358 -0.0820  0.7296 -0.3194
  258DG      C2 5913   2.622   1.418   4.923  0.5854 -0.6914  0.3183
  258DG      H3 5914   2.632   1.420   4.359 -0.1959 -0.0230  0.4380
  258DG      H4 5915   2.502   1.533   4.405  0.7955  0.3999  0.8262
  258DG      H5 5916   2.472   1.444   4.263  0.1156  0.9670 -0.4104
  258DG      H6 5917   2.539   1.388   4.988 -0.7035 -1.9202 -1.7937
  258DG      H7 5918   2.723   1.394   4.956  1.4147 -0.1994 -1.7021
  258DG      H8 5919   2.626   1.527   4.921  0.3471 -0.6454  1.3453
  258DG      O9 5920   2.462   1.351   4.448  0.1429 -0.4297 -0.0812
  258DG     O10 5921   2.606   1.351   4.802 -0.2497 -0.4908  0.1324
  258DG     C11 5922   2.439   1.224   4.407 -0.1324  0.6286 -0.0599
  258DG     C12 5923   2.595   1.214   4.817  0.2953 -0.0872 -0.4631
  258DG     H13 5924   2.533   1.176   4.380 -0.5177  0.1168 -0.5087
  258DG     H14 5925   2.374   1.221   4.319 -2.1635  0.3813  1.3738
  258DG     H15 5926   2.528   1.185   4.898  2.5196  0.7348  1.8335
  258DG     H16 5927   2.692   1.170   4.842 -0.1974 -0.0039  1.7942
  258DG     C17 5928   2.379   1.144   4.523  0.3457  0.1663 -0.3830
  258DG     C18 5929   2.558   1.153   4.681 -0.4880 -0.1881  0.7703
  258DG     O19 5930   2.428   1.189   4.650  0.2530 -0.5293 -0.3345
  258DG     H20 5931   2.394   1.037   4.504  1.6975  0.0758  1.0235
  258DG     H21 5932   2.274   1.168   4.531  0.1386 -0.7769 -0.1038
  258DG     H22 5933   2.631   1.193   4.611 -0.7437  0.5279  0.9036
  258DG     H23 5934   2.576   1.046   4.672 -1.3641 -0.2953  0.1736
  259DG      C1 5935   4.532   1.172   3.843 -0.1628  0.1798  0.2219
  259DG      C2 5936   4.732   0.778   3.306 -0.4339  0.0495  0.1181
  259DG      H3 5937   4.524   1.258   3.908 -2.0428 -0.4430  0.8892
  259DG      H4 5938   4.565   1.085   3.900 -1.0145 -0.2715  0.0480
  259DG      H5 5939   4.429   1.140   3.824  0.1631  0.1579 -1.7983
  259DG      H6 5940   4.748   0.813   3.204  2.0682  0.3916  0.5735
  259DG      H7 5941   4.796   0.692   3.329 -3.2051 -2.0363  0.6016
  259DG      H8 5942   4.633   0.733   3.296 -0.1749 -0.8161  1.1625
  259DG      O9 5943   4.608   1.185   3.725  0.5002 -0.2546  0.0263
  259DG     O10 5944   4.733   0.878   3.410  0.6952  0.4139  0.1406
  259DG     C11 5945   4.741   1.236   3.745  0.0352  0.5776  0.8256
  259DG     C12 5946   4.869   0.912   3.438 -0.0678 -0.3146  0.3852
  259DG     H13 5947   4.809   1.172   3.801 -2.3613 -1.6119  1.4480
  259DG     H14 5948   4.739   1.325   3.809  0.9889  1.7784 -0.7532
  259DG     H15 5949   4.906   0.938   3.340 -1.2256  0.3874  0.1096
  259DG     H16 5950   4.920   0.827   3.483  0.7986  0.4393  0.8513
  259DG     C17 5951   4.805   1.243   3.603  0.4351 -0.8790 -0.2418
  259DG     C18 5952   4.874   1.018   3.544 -0.3937  0.2818 -0.7572
  259DG     O19 5953   4.784   1.123   3.516  0.2901 -0.2308 -0.5478
  259DG     H20 5954   4.911   1.267   3.612  0.3921 -0.5103 -0.6627
  259DG     H21 5955   4.763   1.339   3.572  0.8080 -0.5165  0.3687
  259DG     H22 5956   4.853   0.981   3.644 -1.7467 -1.1050 -1.5073
  259DG     H23 5957   4.978   1.051   3.544 -0.3101  0.0817 -2.0725
  260DG      C1 5958   4.851   1.575   1.221 -0.4746  0.4749 -0.2015
  260DG      C2 5959   4.877   2.217   1.024  0.0567  0.6501  0.0932
  260DG      H3 5960   4.801   1.573   1.124 -0.4466 -0.1845 -0.2099
  260DG      H4 5961   4.773   1.578   1.297  0.0671 -0.1649  0.3911
  260DG      H5 5962   4.907   1.481   1.229  0.0223  0.6005 -1.7495
  260DG      H6 5963   4.770   2.236   1.032  0.0692  1.6373 -1.5642
  260DG      H7 5964   4.928   2.314   1.022  0.2548  0.5435 -0.9143
  260DG      H8 5965   4.889   2.172   0.925  1.9409  1.3871 -0.0631
  260DG      O9 5966   4.936   1.682   1.240 -0.2288  0.0981  0.3862
  260DG     O10 5967   4.934   2.128   1.113  0.3348  0.3143 -0.2328
  260DG     C11 5968   4.971   1.710   1.378 -0.0575  0.0709  0.7150
  260DG     C12 5969   4.915   2.162   1.249  0.0348  0.2022 -0.3714
  260DG     H13 5970   5.033   1.634   1.425  2.2369  1.9754  0.9941
  260DG     H14 5971   4.880   1.725   1.436  0.0661  0.1615  0.8866
  260DG     H15 5972   4.813   2.134   1.277 -0.3742  1.9281  0.0076
  260DG     H16 5973   4.924   2.266   1.279  0.6638 -0.5097  2.1636
  260DG     C17 5974   5.039   1.852   1.386  0.5375  0.3209  0.6141
  260DG     C18 5975   5.001   2.081   1.340  0.0766  0.0101 -0.6062
  260DG     O19 5976   4.960   1.947   1.312 -0.0500  0.7087 -0.7286
  260DG     H20 5977   5.145   1.857   1.360  1.2366 -0.4148  2.9915
  260DG     H21 5978   5.037   1.879   1.492 -0.1909 -1.9300  1.2455
  260DG     H22 5979   5.106   2.089   1.312  0.9962 -1.3696  2.0761
  260DG     H23 5980   4.989   2.107   1.445 -0.8393 -2.7144  0.0699
  261DG      C1 5981   4.420   1.358   1.732 -0.2497 -0.4304 -0.2388
  261DG      C2 5982   5.191   1.386   1.438 -0.2834  0.2508  0.2847
  261DG      H3 5983   4.413   1.462   1.701 -0.6027 -0.7028 -1.0882
  261DG      H4 5984   4.415   1.347   1.841 -1.2766 -0.4021 -0.2702
  261DG      H5 5985   4.342   1.302   1.680  0.1786 -0.3230 -1.0005
  261DG      H6 5986   5.278   1.320   1.441 -1.4947 -1.3592  1.5836
  261DG      H7 5987   5.204   1.443   1.345  2.1627 -0.5343  0.0742
  261DG      H8 5988   5.202   1.454   1.522 -0.0247  0.4999  0.0524
  261DG      O9 5989   4.556   1.308   1.697  0.0484  0.0537 -0.8734
  261DG     O10 5990   5.078   1.305   1.424 -0.5583  0.5359  0.0920
  261DG     C11 5991   4.565   1.274   1.562 -0.1378 -0.5689 -0.3190
  261DG     C12 5992   5.050   1.234   1.542 -0.0196  0.1938 -0.1172
  261DG     H13 5993   4.590   1.372   1.520  0.5397 -0.8798 -0.6515
  261DG     H14 5994   4.473   1.234   1.519  1.5217 -3.3646 -1.5051
  261DG     H15 5995   5.063   1.297   1.630  0.9261  2.0033 -1.4920
  261DG     H16 5996   5.131   1.161   1.552 -0.6764 -0.6496 -0.7705
  261DG     C17 5997   4.688   1.178   1.534 -0.4528 -0.0250  0.4285
  261DG     C18 5998   4.921   1.153   1.529 -0.2190 -0.1050  0.1385
  261DG     O19 5999   4.812   1.242   1.543 -0.0655  0.2595 -0.5373
  261DG     H20 6000   4.664   1.134   1.437  0.4603  1.2146 -0.3928
  261DG     H21 6001   4.695   1.098   1.607  1.6045  1.6995  2.2475
  261DG     H22 6002   4.921   1.101   1.433  0.4178  0.8258 -0.3857
  261DG     H23 6003   4.911   1.084   1.613 -0.8293 -2.2693 -1.6127
  262DG      C1 6004   2.592   4.335   2.635 -0.2457  0.4790 -0.1438
  262DG      C2 6005   3.035   4.662   2.939 -0.1504 -0.2082  0.9212
  262DG      H3 6006   2.565   4.246   2.577  1.8970 -0.6375  0.4746
  262DG      H4 6007   2.558   4.428   2.588 -0.3849 -0.4416 -1.9776
  262DG      H5 6008   2.545   4.323   2.732 -1.0336 -0.7905 -0.6475
  262DG      H6 6009   3.130   4.713   2.958 -0.7076  0.5488  1.8092
  262DG      H7 6010   3.007   4.671   2.834  0.5831  1.4248  0.8347
  262DG      H8 6011   2.968   4.722   3.000  0.2161 -0.8544  1.9920
  262DG      O9 6012   2.735   4.337   2.671  0.3009 -0.2267 -0.2697
  262DG     O10 6013   3.022   4.525   2.972 -0.4327  0.3052  0.7416
  262DG     C11 6014   2.818   4.360   2.553 -0.5077 -0.0233 -0.2739
  262DG     C12 6015   3.125   4.438   2.919  0.1681 -0.7833 -0.6744
  262DG     H13 6016   2.775   4.438   2.490 -1.1678 -1.0035 -1.0581
  262DG     H14 6017   2.819   4.258   2.515 -1.4157  0.6269 -2.1549
  262DG     H15 6018   3.109   4.339   2.961  1.7742 -1.2728 -1.1161
  262DG     H16 6019   3.218   4.480   2.957 -1.3720  1.4578  0.9016
  262DG     C17 6020   2.968   4.397   2.590 -0.1648  0.3783  0.0560
  262DG     C18 6021   3.124   4.424   2.767 -0.0402  0.2914  0.0986
  262DG     O19 6022   2.989   4.397   2.728  0.2238  0.2213  0.2268
  262DG     H20 6023   2.991   4.488   2.535 -0.9655  0.7039  0.2471
  262DG     H21 6024   3.035   4.326   2.541  0.4084  2.2833 -2.0765
  262DG     H22 6025   3.161   4.520   2.732 -0.9719  0.4556 -0.4701
  262DG     H23 6026   3.189   4.344   2.733 -0.3246  0.7316 -1.5803
  263DG      C1 6027   4.107   5.400   0.575  0.2803  0.4797  0.3507
  263DG      C2 6028   4.765   5.408   0.319 -0.1532  0.7002 -0.6163
  263DG      H3 6029   4.040   5.482   0.599 -0.4949  0.4497 -1.5546
  263DG      H4 6030   4.188   5.386   0.647  0.2504  2.4148  0.8134
  263DG      H5 6031   4.046   5.311   0.593 -1.5166  1.4860 -0.5419
  263DG      H6 6032   4.766   5.300   0.329 -2.9367  0.5145 -1.6501
  263DG      H7 6033   4.825   5.438   0.232 -1.5556  0.8844 -1.5451
  263DG      H8 6034   4.807   5.444   0.413 -1.7539 -3.0255  1.7067
  263DG      O9 6035   4.145   5.404   0.439  0.5428  0.6964 -0.5298
  263DG     O10 6036   4.642   5.478   0.312  0.1455 -0.3884 -0.0773
  263DG     C11 6037   4.172   5.537   0.392  0.0078  0.0610  0.4417
  263DG     C12 6038   4.571   5.447   0.188 -1.3136 -0.1503  0.1357
  263DG     H13 6039   4.238   5.593   0.459  0.4989 -0.2694  0.2401
  263DG     H14 6040   4.076   5.587   0.405 -1.8174 -2.9091 -0.5417
  263DG     H15 6041   4.570   5.339   0.172  1.6894 -0.0183 -1.4913
  263DG     H16 6042   4.631   5.480   0.104  3.6732 -1.9094  2.6138
  263DG     C17 6043   4.229   5.544   0.255 -0.1248 -0.0613  0.0829
  263DG     C18 6044   4.445   5.522   0.176 -0.0456 -0.6670 -0.3905
  263DG     O19 6045   4.349   5.477   0.272  0.0921  0.2395  0.0478
  263DG     H20 6046   4.248   5.650   0.237 -0.5022  0.3661  2.0085
  263DG     H21 6047   4.162   5.505   0.178 -0.2248 -1.7781  0.9734
  263DG     H22 6048   4.455   5.630   0.184  0.9235 -0.7739 -0.0264
  263DG     H23 6049   4.395   5.513   0.079 -0.4124 -0.1855 -0.2487
  264DG      C1 6050   2.665   4.836   0.684 -0.0198 -0.7612 -0.3590
  264DG      C2 6051   2.736   4.680   1.272 -0.0916 -0.3827  0.1692
  264DG      H3 6052   2.684   4.878   0.585  1.6503 -2.3358 -0.7648
  264DG      H4 6053   2.570   4.884   0.707  0.8332  0.7397  0.2120
  264DG      H5 6054   2.649   4.729   0.680 -0.3087 -0.7253 -0.2098
  264DG      H6 6055   2.768   4.678   1.376  0.6210 -0.0047 -0.0374
  264DG      H7 6056   2.630   4.706   1.268  0.0551  0.1216 -0.7718
  264DG      H8 6057   2.749   4.578   1.236 -0.9665 -1.1593  1.9243
  264DG      O9 6058   2.771   4.864   0.777 -0.1101 -0.1513 -0.2886
  264DG     O10 6059   2.806   4.789   1.208 -0.2737 -0.8628  0.0937
  264DG     C11 6060   2.886   4.787   0.741 -0.1989 -0.1840  0.4740
  264DG     C12 6061   2.948   4.767   1.206  0.1450  0.9585 -0.0961
  264DG     H13 6062   2.917   4.824   0.643  2.9342 -0.5723  1.2081
  264DG     H14 6063   2.853   4.684   0.731 -0.7637  0.0249  0.1398
  264DG     H15 6064   2.960   4.659   1.196 -0.0154  0.5255  3.2893
  264DG     H16 6065   2.988   4.798   1.302 -1.8184 -0.1863  1.1558
  264DG     C17 6066   2.992   4.814   0.850  0.6330  0.0852 -0.0565
  264DG     C18 6067   3.010   4.847   1.091 -0.4577 -0.0883 -0.5501
  264DG     O19 6068   2.933   4.817   0.978 -0.7099 -0.4064 -0.2029
  264DG     H20 6069   3.044   4.908   0.836 -1.0209  1.0743  0.2462
  264DG     H21 6070   3.066   4.734   0.858  2.1969  1.3960 -0.8138
  264DG     H22 6071   3.019   4.952   1.118 -0.3711  0.0457 -1.0901
  264DG     H23 6072   3.109   4.806   1.068 -0.8496 -0.9171 -0.7949
  265DG      C1 6073   4.098   2.523   1.305  0.7210  0.3451 -0.2381
  265DG      C2 6074   3.734   2.131   0.843 -0.3968  0.5230 -0.1050
  265DG      H3 6075   4.154   2.571   1.224  2.8641 -0.7337  0.5263
  265DG      H4 6076   4.168   2.478   1.375 -0.3740 -0.7688  0.1853
  265DG      H5 6077   4.043   2.606   1.350 -1.7773 -0.4672 -1.5659
  265DG      H6 6078   3.829   2.088   0.812 -0.7281 -0.4132  0.1453
  265DG      H7 6079   3.658   2.055   0.865 -0.2406  0.2016 -0.6553
  265DG      H8 6080   3.693   2.186   0.759 -1.0438 -1.0901 -0.9009
  265DG      O9 6081   3.976   2.443   1.266 -0.6032 -0.1377  0.0654
  265DG     O10 6082   3.743   2.214   0.954 -0.2878 -0.0012 -0.2088
  265DG     C11 6083   3.896   2.396   1.374  0.4209  0.2640  0.0582
  265DG     C12 6084   3.615   2.261   1.007 -0.4115  0.6025  0.0591
  265DG     H13 6085   3.909   2.442   1.472 -1.4896 -0.5583  0.7573
  265DG     H14 6086   3.931   2.294   1.384  0.2503  0.2876  1.0010
  265DG     H15 6087   3.553   2.179   1.043 -0.4771  0.8858  0.6090
  265DG     H16 6088   3.571   2.313   0.922 -2.3710 -2.0692 -0.6765
  265DG     C17 6089   3.754   2.408   1.317 -0.0420 -0.0340  0.3886
  265DG     C18 6090   3.631   2.368   1.116  0.6750 -0.5606 -0.7672
  265DG     O19 6091   3.734   2.325   1.201 -0.1453  0.3707  0.7916
  265DG     H20 6092   3.732   2.513   1.296  1.1661  0.1373 -0.1370
  265DG     H21 6093   3.682   2.367   1.387  0.1913 -2.2305 -0.5790
  265DG     H22 6094   3.667   2.461   1.073  0.4234 -0.9307 -1.8341
  265DG     H23 6095   3.530   2.375   1.157 -0.6588  1.5497 -4.0058
  266DG      C1 6096   2.442   2.254   0.352 -0.9403 -0.0948 -0.2396
  266DG      C2 6097   1.788   2.120   0.417  0.2554 -0.4029 -0.3391
  266DG      H3 6098   2.391   2.326   0.415 -0.0654 -0.0798  0.4784
  266DG      H4 6099   2.542   2.280   0.318  0.3034 -0.6745  2.6602
  266DG      H5 6100   2.453   2.159   0.404  0.9528  0.6985  0.9398
  266DG      H6 6101   1.836   2.061   0.495 -0.9384 -2.3989 -1.0479
  266DG      H7 6102   1.748   2.214   0.456  0.5972 -0.0646 -0.7959
  266DG      H8 6103   1.711   2.061   0.368  0.2481  0.2571 -1.1534
  266DG      O9 6104   2.353   2.239   0.241  0.3768  0.3502 -0.3622
  266DG     O10 6105   1.879   2.145   0.318  0.1340 -0.3589  0.1504
  266DG     C11 6106   2.289   2.355   0.201  0.8203  0.0522  0.5952
  266DG     C12 6107   1.826   2.221   0.205 -0.2966  0.4543  0.3790
  266DG     H13 6108   2.366   2.419   0.156  1.0260  0.8903  2.0708
  266DG     H14 6109   2.259   2.406   0.292  1.5102 -2.8385  2.5866
  266DG     H15 6110   1.777   2.312   0.242 -1.5477 -0.7321  1.7832
  266DG     H16 6111   1.746   2.172   0.150 -1.3519 -0.2854  2.4670
  266DG     C17 6112   2.168   2.340   0.100 -0.7926  0.0602 -0.7168
  266DG     C18 6113   1.948   2.260   0.118  0.2965  0.0115  0.1913
  266DG     O19 6114   2.058   2.303   0.193  0.2647 -0.0207 -0.2437
  266DG     H20 6115   2.184   2.267   0.021 -0.5848 -0.2827 -0.3624
  266DG     H21 6116   2.148   2.432   0.045  1.9425  0.1549 -1.7047
  266DG     H22 6117   1.972   2.183   0.045 -1.1471 -0.9003  0.6296
  266DG     H23 6118   1.916   2.351   0.066 -1.1497  0.0995  1.1510
  267DG      C1 6119   1.459   2.752   1.277 -0.7475 -0.0244  0.4593
  267DG      C2 6120   1.272   2.752   2.063 -0.4030  0.1665  0.3598
  267DG      H3 6121   1.358   2.757   1.238 -0.5071  0.9876 -0.0657
  267DG      H4 6122   1.486   2.647   1.283  0.4422  0.2107 -0.3986
  267DG      H5 6123   1.526   2.805   1.210 -4.3171  1.9434 -1.9194
  267DG      H6 6124   1.169   2.788   2.068 -0.7865 -0.6219 -1.1296
  267DG      H7 6125   1.268   2.647   2.034 -0.4558  0.3375 -0.2742
  267DG      H8 6126   1.314   2.759   2.163 -1.0420  0.5638  0.6076
  267DG      O9 6127   1.457   2.797   1.410 -0.3249 -0.0526 -0.2386
  267DG     O10 6128   1.358   2.830   1.984 -0.3370  0.4695 -0.2035
  267DG     C11 6129   1.405   2.936   1.417 -0.2146 -0.8298 -0.1761
  267DG     C12 6130   1.325   2.837   1.848  0.1166 -0.0302 -0.0389
  267DG     H13 6131   1.299   2.938   1.388  0.0274 -1.2756 -1.1305
  267DG     H14 6132   1.438   2.999   1.335 -1.0347 -0.2731 -0.0903
  267DG     H15 6133   1.221   2.871   1.840  0.8151  1.8076 -2.3532
  267DG     H16 6134   1.337   2.736   1.810 -1.8564 -0.4936  0.4245
  267DG     C17 6135   1.433   3.004   1.551  0.4442  0.1997 -0.3711
  267DG     C18 6136   1.411   2.940   1.769  0.3741  0.0900 -0.3535
  267DG     O19 6137   1.356   2.930   1.642  0.1243 -0.5754 -0.0867
  267DG     H20 6138   1.396   3.107   1.544  1.9001  0.8255  0.5526
  267DG     H21 6139   1.539   3.016   1.573  0.1063  2.4310  0.3594
  267DG     H22 6140   1.400   3.042   1.807 -1.4973  0.6031 -2.0800
  267DG     H23 6141   1.516   2.910   1.762 -0.0699 -1.2470 -1.7006
  268DG      C1 6142   1.089   3.659   4.383 -0.1746 -0.3080  0.3367
  268DG      C2 6143   1.136   3.748   3.950 -0.5023 -0.2422 -0.2003
  268DG      H3 6144   1.006   3.668   4.453  0.2010 -1.1411  0.9173
  268DG      H4 6145   1.071   3.571   4.321  1.0330 -1.5433  1.6524
  268DG      H5 6146   1.087   3.745   4.317  0.0419  0.7331  1.6453
  268DG      H6 6147   1.049   3.814   3.951  1.0150  1.8970  1.9192
  268DG      H7 6148   1.210   3.775   4.026 -0.0366 -2.2724  0.1157
  268DG      H8 6149   1.181   3.776   3.855  0.2702 -2.7194 -0.6220
  268DG      O9 6150   1.209   3.642   4.453 -0.4782 -0.3366  0.3718
  268DG     O10 6151   1.104   3.614   3.943  0.1822  0.1134 -0.4056
  268DG     C11 6152   1.331   3.664   4.380  0.0594  0.5416 -0.1558
  268DG     C12 6153   1.221   3.538   3.927 -0.1799 -0.3578  0.0887
  268DG     H13 6154   1.409   3.674   4.455 -0.8187  1.0145  0.7316
  268DG     H14 6155   1.319   3.764   4.337 -0.7988  1.2565  1.6252
  268DG     H15 6156   1.301   3.587   3.872  1.4989 -0.2075  2.4913
  268DG     H16 6157   1.191   3.459   3.858  0.1984  0.3887 -0.9650
  268DG     C17 6158   1.366   3.559   4.270  0.4651 -0.2922 -0.2502
  268DG     C18 6159   1.274   3.480   4.062 -0.2499 -0.1443 -0.1140
  268DG     O19 6160   1.277   3.575   4.163 -0.0514 -0.0873  0.0375
  268DG     H20 6161   1.350   3.452   4.288 -0.5387 -0.5859 -2.4874
  268DG     H21 6162   1.467   3.575   4.233  0.3659  0.3353 -0.2488
  268DG     H22 6163   1.203   3.404   4.095 -0.6130 -0.1457 -0.8748
  268DG     H23 6164   1.363   3.423   4.035 -0.4948 -0.2764 -0.6661
  269DG      C1 6165   1.764   1.847   3.795  0.1718  0.0390 -0.0652
  269DG      C2 6166   2.415   1.908   3.855 -0.3375 -0.4119 -0.2860
  269DG      H3 6167   1.761   1.741   3.820 -0.3772 -0.6552 -2.7858
  269DG      H4 6168   1.670   1.854   3.740  0.6066  0.0708 -0.8203
  269DG      H5 6169   1.752   1.910   3.883 -2.8601 -0.8067  0.2441
  269DG      H6 6170   2.442   2.013   3.844  1.5660 -0.8972 -0.5833
  269DG      H7 6171   2.405   1.896   3.963  0.5498  2.7090  0.2465
  269DG      H8 6172   2.502   1.859   3.812  0.6279  0.5733  0.4746
  269DG      O9 6173   1.870   1.879   3.706  0.0918 -0.2964 -0.4029
  269DG     O10 6174   2.291   1.877   3.787 -0.0280  0.8555 -0.4398
  269DG     C11 6175   1.869   1.794   3.595 -0.0113  0.1379  0.4690
  269DG     C12 6176   2.257   1.745   3.792 -0.1987 -0.2014 -0.3451
  269DG     H13 6177   1.799   1.829   3.519  1.1618  0.7109 -0.3841
  269DG     H14 6178   1.840   1.694   3.627 -2.6161  1.2287  1.8498
  269DG     H15 6179   2.262   1.715   3.896  1.7920  3.2295  0.7110
  269DG     H16 6180   2.336   1.687   3.745  0.0881  0.6920 -1.0073
  269DG     C17 6181   2.001   1.795   3.527 -1.1459  0.6804 -0.5331
  269DG     C18 6182   2.128   1.712   3.719  0.1027 -0.2420 -0.0940
  269DG     O19 6183   2.108   1.814   3.616  0.2358  0.0566 -0.2316
  269DG     H20 6184   2.008   1.885   3.466 -1.9998  0.9354 -0.2759
  269DG     H21 6185   2.015   1.706   3.465  1.0652  0.1393  0.6458
  269DG     H22 6186   2.126   1.612   3.677  2.9671 -1.1823  1.7193
  269DG     H23 6187   2.038   1.713   3.781  0.3951  0.7887  0.3449
  270DG      C1 6188   4.976   3.171   3.735  0.3412 -0.7386 -0.1117
  270DG      C2 6189   5.169   3.288   4.421  0.4321  0.3712  0.2552
  270DG      H3 6190   4.941   3.274   3.749  0.3739 -0.6184 -0.8630
  270DG      H4 6191   4.895   3.098   3.729  0.3625 -0.8905  1.2531
  270DG      H5 6192   5.037   3.164   3.645 -0.3906 -1.1124 -0.5835
  270DG      H6 6193   5.185   3.220   4.504 -0.1030 -0.2245 -0.1123
  270DG      H7 6194   5.250   3.360   4.410  0.7512  0.0682  0.6102
  270DG      H8 6195   5.079   3.349   4.435 -1.0270 -1.2782 -1.3779
  270DG      O9 6196   5.065   3.149   3.843  0.6242 -0.1044  0.5240
  270DG     O10 6197   5.159   3.191   4.315  0.0623 -0.4270 -0.1516
  270DG     C11 6198   5.073   3.015   3.883 -0.5585  0.1987  0.1927
  270DG     C12 6199   5.282   3.135   4.286 -0.4506  0.7697  0.5198
  270DG     H13 6200   5.069   2.952   3.794  3.1507 -0.9130  0.6440
  270DG     H14 6201   4.980   2.986   3.933 -1.0068  0.7784 -0.2840
  270DG     H15 6202   5.349   3.100   4.364 -0.7390  1.3087  1.0138
  270DG     H16 6203   5.350   3.213   4.252  5.0663 -1.7752  4.3169
  270DG     C17 6204   5.201   2.981   3.964 -0.2131 -0.1218 -0.3429
  270DG     C18 6205   5.273   3.029   4.179 -0.5226  0.3488 -0.4834
  270DG     O19 6206   5.190   3.065   4.078 -0.3314 -0.3182  0.7659
  270DG     H20 6207   5.287   3.029   3.918 -0.3190  0.3334 -0.0749
  270DG     H21 6208   5.211   2.875   3.988  3.1216 -0.0309 -0.8792
  270DG     H22 6209   5.373   3.010   4.140 -1.7400  0.5716 -4.1257
  270DG     H23 6210   5.243   2.936   4.227  1.6154  1.5710  3.6742
  271DG      C1 6211   2.597   3.147   2.921 -0.2915 -0.0134  0.4762
  271DG      C2 6212   2.931   3.707   3.383 -0.6142 -0.7945 -0.0670
  271DG      H3 6213   2.567   3.132   3.024  0.3212  0.4936  0.7348
  271DG      H4 6214   2.666   3.064   2.903 -0.4538  0.4283 -2.9895
  271DG      H5 6215   2.506   3.138   2.862 -1.0149 -0.1414  1.6002
  271DG      H6 6216   2.932   3.815   3.373 -0.3051 -0.8261 -0.3959
  271DG      H7 6217   2.892   3.685   3.482 -0.0467 -1.2197  0.0703
  271DG      H8 6218   3.036   3.679   3.382 -0.3182  0.2217  0.8290
  271DG      O9 6219   2.665   3.273   2.901 -0.3688  0.3274  0.4588
  271DG     O10 6220   2.844   3.651   3.288 -0.4359  0.3831  0.2949
  271DG     C11 6221   2.579   3.373   2.940  1.0982 -0.4693 -0.4240
  271DG     C12 6222   2.912   3.639   3.164 -0.0981 -0.0793  0.2837
  271DG     H13 6223   2.534   3.361   3.038 -0.7448 -1.0255 -1.2797
  271DG     H14 6224   2.494   3.380   2.871  0.1441  1.3017  0.8595
  271DG     H15 6225   2.961   3.542   3.172 -0.3230 -0.2323 -0.1715
  271DG     H16 6226   2.973   3.725   3.136 -0.3035 -0.9657 -3.3988
  271DG     C17 6227   2.643   3.512   2.951 -0.0422 -0.3328 -0.3106
  271DG     C18 6228   2.807   3.626   3.050 -0.1823  0.1503  0.1636
  271DG     O19 6229   2.737   3.508   3.055 -0.9963 -0.1928  0.5488
  271DG     H20 6230   2.567   3.589   2.968 -0.7368 -1.0593 -0.0523
  271DG     H21 6231   2.683   3.537   2.853 -0.8665 -2.2431 -1.1736
  271DG     H22 6232   2.743   3.714   3.059  0.0554  0.1582  2.1374
  271DG     H23 6233   2.859   3.647   2.957  0.5189  0.8864  0.7079
  272DG      C1 6234   0.501   3.321   5.100  0.2479  1.0857  0.3549
  272DG      C2 6235   1.182   3.645   5.138  0.7438 -0.6699 -0.6139
  272DG      H3 6236   0.533   3.355   5.002  1.3751 -0.4512  0.1500
  272DG      H4 6237   0.403   3.358   5.130 -0.9488 -1.0638 -0.7230
  272DG      H5 6238   0.476   3.218   5.079 -0.7498  1.6938 -1.6551
  272DG      H6 6239   1.110   3.726   5.153 -0.0041 -1.6272  1.3077
  272DG      H7 6240   1.239   3.647   5.230 -1.0255  1.1682  0.5260
  272DG      H8 6241   1.243   3.663   5.049  2.9423  0.4057  1.0457
  272DG      O9 6242   0.599   3.356   5.202  0.3182  0.6583 -0.1174
  272DG     O10 6243   1.106   3.525   5.126  0.3039  0.2000 -0.1623
  272DG     C11 6244   0.689   3.247   5.226  0.5746 -0.1005 -0.2506
  272DG     C12 6245   1.027   3.517   5.007 -0.0908 -0.5980  0.3271
  272DG     H13 6246   0.638   3.152   5.242  1.5212 -0.9178 -1.8273
  272DG     H14 6247   0.730   3.264   5.326 -2.0613  1.7136  0.6441
  272DG     H15 6248   1.089   3.526   4.919  1.1158 -3.6620  0.7484
  272DG     H16 6249   0.949   3.594   5.001 -1.3209 -1.8917 -1.0424
  272DG     C17 6250   0.806   3.242   5.122 -0.3435 -0.0334 -0.1207
  272DG     C18 6251   0.963   3.378   5.009  0.2918 -0.4076  0.1952
  272DG     O19 6252   0.859   3.374   5.112  0.2102 -0.3548 -0.1821
  272DG     H20 6253   0.761   3.226   5.024  4.5202 -2.1438 -2.3209
  272DG     H21 6254   0.879   3.163   5.140 -0.0554  0.2312 -0.1241
  272DG     H22 6255   0.933   3.342   4.911 -0.6024  0.1800  0.2428
  272DG     H23 6256   1.037   3.302   5.035 -0.0497 -1.2225 -1.1446
  273DG      C1 6257   0.936   2.371   2.065  0.1489 -0.7800  0.3796
  273DG      C2 6258   0.987   1.751   2.115  0.8145  0.2049  0.1957
  273DG      H3 6259   0.980   2.334   2.158 -1.3433 -1.0664  1.0140
  273DG      H4 6260   0.916   2.478   2.063  1.3901 -0.5122  1.1433
  273DG      H5 6261   1.008   2.360   1.985  0.9237 -2.2266  1.2325
  273DG      H6 6262   0.983   1.764   2.223 -1.6647 -2.2818  0.5097
  273DG      H7 6263   0.945   1.655   2.086 -0.1054  1.1943 -1.9576
  273DG      H8 6264   1.095   1.748   2.102  0.8735 -1.4199  0.8242
  273DG      O9 6265   0.811   2.299   2.052 -0.3078 -0.1438 -0.0844
  273DG     O10 6266   0.928   1.863   2.040 -0.0989  0.6967 -0.1070
  273DG     C11 6267   0.767   2.306   1.918  1.0146 -0.2768  0.3428
  273DG     C12 6268   0.924   1.849   1.899 -0.1925  0.7865 -0.2732
  273DG     H13 6269   0.760   2.406   1.876 -1.8231 -1.2235 -1.7821
  273DG     H14 6270   0.659   2.297   1.935  0.4768  2.3978 -1.1341
  273DG     H15 6271   0.831   1.802   1.868  0.5164 -1.5256  0.8796
  273DG     H16 6272   1.001   1.778   1.869 -0.1305  0.9558 -0.5215
  273DG     C17 6273   0.819   2.201   1.823 -0.1297 -0.2064  0.1917
  273DG     C18 6274   0.937   1.992   1.836  0.3302 -0.2224 -0.0695
  273DG     O19 6275   0.823   2.071   1.883 -0.7139  0.0354 -0.1903
  273DG     H20 6276   0.919   2.221   1.783  0.6938 -1.1139  1.6646
  273DG     H21 6277   0.762   2.200   1.731 -1.0975  1.7451  0.7244
  273DG     H22 6278   1.028   2.042   1.867 -0.7099  1.3313  0.6313
  273DG     H23 6279   0.923   1.992   1.728 -1.5068 -1.3091  0.1193
  274DG      C1 6280   0.343   5.193   5.307  0.3143 -0.3682 -0.3318
  274DG      C2 6281   0.975   5.134   4.928  0.5301 -0.7179 -0.1936
  274DG      H3 6282   0.314   5.279   5.366 -1.6673 -1.7036  0.7586
  274DG      H4 6283   0.386   5.123   5.379  0.6556 -1.4055 -1.4959
  274DG      H5 6284   0.254   5.147   5.264  0.0275 -0.4790  0.3751
  274DG      H6 6285   0.985   5.131   5.037 -0.4222 -1.5487 -0.1144
  274DG      H7 6286   0.949   5.031   4.903 -1.0681 -0.5753  0.7365
  274DG      H8 6287   1.063   5.175   4.877  0.3785 -1.2994 -0.9327
  274DG      O9 6288   0.449   5.234   5.213 -0.2225  0.5605 -0.1439
  274DG     O10 6289   0.860   5.207   4.894 -0.1010  0.0684  0.0498
  274DG     C11 6290   0.406   5.289   5.087  0.3670 -0.7644 -0.4057
  274DG     C12 6291   0.863   5.342   4.928 -0.3972 -0.8045 -0.4744
  274DG     H13 6292   0.321   5.350   5.118 -1.7660 -4.0641  0.8297
  274DG     H14 6293   0.365   5.204   5.035  0.0896 -0.6397 -0.3901
  274DG     H15 6294   0.926   5.393   4.855 -0.7749 -1.8313 -1.5748
  274DG     H16 6295   0.915   5.357   5.022  2.3619 -0.5422 -1.9581
  274DG     C17 6296   0.511   5.377   5.015 -0.1224 -0.1195 -0.6723
  274DG     C18 6297   0.728   5.409   4.922 -0.2795 -0.7320 -0.3692
  274DG     O19 6298   0.645   5.325   5.001 -0.6501  0.5721 -0.1152
  274DG     H20 6299   0.525   5.470   5.070  2.5412 -0.3641 -0.8393
  274DG     H21 6300   0.470   5.403   4.917  1.3778  3.1765 -0.5604
  274DG     H22 6301   0.729   5.511   4.960  0.5289 -1.3510  1.3676
  274DG     H23 6302   0.695   5.401   4.818  0.2411  3.3633 -0.9886
  275DG      C1 6303   5.444   5.142   3.120 -0.3161  0.1859 -0.2115
  275DG      C2 6304   5.425   5.368   3.954 -0.2505  0.4573  0.2806
  275DG      H3 6305   5.419   5.189   3.025 -0.0333  0.0193 -0.3669
  275DG      H4 6306   5.367   5.065   3.134 -0.0897 -0.3882 -1.9307
  275DG      H5 6307   5.549   5.113   3.118 -0.0145  0.8227  2.3915
  275DG      H6 6308   5.474   5.271   3.961  1.2144  1.1861  0.6404
  275DG      H7 6309   5.477   5.438   4.019  0.9036 -1.2526  1.2857
  275DG      H8 6310   5.322   5.350   3.982 -0.0127 -0.8663  0.3928
  275DG      O9 6311   5.447   5.247   3.213  0.2732  0.7426 -0.0186
  275DG     O10 6312   5.431   5.400   3.814  0.3428 -0.1178 -0.9760
  275DG     C11 6313   5.461   5.219   3.351  0.2256 -0.1075  0.7831
  275DG     C12 6314   5.565   5.424   3.763  0.5360  0.7760 -0.1006
  275DG     H13 6315   5.550   5.161   3.371  0.2012 -0.2403  0.5136
  275DG     H14 6316   5.386   5.147   3.385 -2.6952  2.6567  0.7631
  275DG     H15 6317   5.623   5.333   3.777  2.0839  1.3802 -2.0705
  275DG     H16 6318   5.618   5.510   3.806  1.8437  0.5538 -1.2035
  275DG     C17 6319   5.478   5.361   3.422  0.2694  0.1928  0.4621
  275DG     C18 6320   5.545   5.454   3.618  0.0755 -0.2171  0.4309
  275DG     O19 6321   5.512   5.334   3.554 -0.4594  0.4157  0.1890
  275DG     H20 6322   5.391   5.425   3.414  0.9339  1.0493 -0.0923
  275DG     H21 6323   5.560   5.415   3.374 -0.0841 -1.1125 -1.8161
  275DG     H22 6324   5.478   5.539   3.604  2.3383  1.4429 -1.1537
  275DG     H23 6325   5.638   5.487   3.571  0.2465 -1.2347  0.0398
  276DG      C1 6326   3.297   3.760   1.970 -0.3326  0.0320 -0.9193
  276DG      C2 6327   2.974   3.620   1.255  0.6056  0.0459 -0.5173
  276DG      H3 6328   3.333   3.863   1.965  1.4151 -0.3796  1.4612
  276DG      H4 6329   3.377   3.705   1.919  1.0546 -0.0976  1.2545
  276DG      H5 6330   3.294   3.741   2.077  1.5787  0.3352 -0.7659
  276DG      H6 6331   2.975   3.519   1.215 -2.5076 -2.1216  3.9712
  276DG      H7 6332   2.897   3.685   1.214  0.2453 -0.1971 -0.2358
  276DG      H8 6333   3.066   3.678   1.243  1.0602 -0.1430  1.5852
  276DG      O9 6334   3.177   3.742   1.898  0.0658  0.5397 -0.3063
  276DG     O10 6335   2.964   3.608   1.399  0.3722 -0.4494 -0.1043
  276DG     C11 6336   3.140   3.597   1.895  0.4288 -0.6654  0.3493
  276DG     C12 6337   2.913   3.717   1.473 -0.2820  0.0762  0.3042
  276DG     H13 6338   3.131   3.543   1.989 -0.1132 -0.4627  0.4209
  276DG     H14 6339   3.217   3.549   1.835  0.1004 -0.3465 -0.3485
  276DG     H15 6340   2.820   3.743   1.422  1.2696 -1.2154 -3.5863
  276DG     H16 6341   2.984   3.799   1.463 -0.6584  0.5741  1.5090
  276DG     C17 6342   3.006   3.590   1.807  0.3995  0.3108  0.5138
  276DG     C18 6343   2.896   3.675   1.621  0.6054  0.1558 -0.1213
  276DG     O19 6344   3.019   3.646   1.674 -0.7700 -0.0465 -0.2281
  276DG     H20 6345   2.927   3.631   1.869  1.2765  1.8208  0.6980
  276DG     H21 6346   2.981   3.487   1.781 -1.5018  0.2875  2.2742
  276DG     H22 6347   2.850   3.763   1.667 -0.0712 -0.3958  0.2777
  276DG     H23 6348   2.840   3.582   1.629  3.0340 -1.3387  0.7823
  277DG      C1 6349   1.567   4.427   5.409 -0.1718 -0.5671  0.6751
  277DG      C2 6350   1.064   5.055   5.696 -0.3099  0.1764 -0.3601
  277DG      H3 6351   1.663   4.475   5.427  0.1111  0.4211 -2.7236
  277DG      H4 6352   1.580   4.366   5.320 -0.0285 -0.3789  0.5656
  277DG      H5 6353   1.547   4.355   5.488  0.0833 -1.9798 -0.5209
  277DG      H6 6354   0.964   5.014   5.680 -1.2609  2.1958  0.1704
  277DG      H7 6355   1.101   5.036   5.797 -1.0232  3.2143  0.5690
  277DG      H8 6356   1.036   5.160   5.690 -0.2921  0.1931 -0.1426
  277DG      O9 6357   1.450   4.508   5.411 -0.0871  0.0093  0.0800
  277DG     O10 6358   1.152   5.027   5.583  0.0353 -0.2317 -0.3311
  277DG     C11 6359   1.449   4.591   5.301  0.3392  0.0070 -0.0822
  277DG     C12 6360   1.177   4.886   5.564  0.0481 -0.4063  1.4777
  277DG     H13 6361   1.360   4.579   5.239 -0.8594 -0.0744  1.5813
  277DG     H14 6362   1.531   4.585   5.229 -0.6435  1.0195 -1.3474
  277DG     H15 6363   1.092   4.843   5.510  0.2397 -1.8565  2.2838
  277DG     H16 6364   1.187   4.828   5.656  2.4995 -1.9437  0.3286
  277DG     C17 6365   1.439   4.736   5.354 -0.1724  0.8080 -0.3920
  277DG     C18 6366   1.306   4.881   5.488 -0.6629  0.4731  0.2432
  277DG     O19 6367   1.334   4.747   5.444 -0.1454 -0.2770  0.2560
  277DG     H20 6368   1.429   4.802   5.267 -0.7296 -0.9482 -1.7147
  277DG     H21 6369   1.540   4.759   5.386  0.3193  0.1476 -1.3968
  277DG     H22 6370   1.301   4.953   5.406 -2.1879 -0.0378 -0.1626
  277DG     H23 6371   1.386   4.910   5.555 -1.3121  1.4082  0.6343
  278DG      C1 6372   0.911   1.372   3.007  0.3834 -0.6175  0.5855
  278DG      C2 6373   1.200   1.798   2.579  0.2342  0.2205 -0.4679
  278DG      H3 6374   0.854   1.290   3.051  2.4520 -1.8528  1.0869
  278DG      H4 6375   0.880   1.462   3.060  0.1302 -0.5016  0.2469
  278DG      H5 6376   1.018   1.361   3.022  0.4231 -0.9187  0.1034
  278DG      H6 6377   1.299   1.754   2.595  0.5554  1.1715  0.2284
  278DG      H7 6378   1.206   1.829   2.475 -2.0139  0.2615 -0.6272
  278DG      H8 6379   1.192   1.881   2.649  2.0501 -0.0811  0.1437
  278DG      O9 6380   0.894   1.389   2.870 -0.3964 -0.2897  0.4338
  278DG     O10 6381   1.093   1.703   2.603  0.0549  0.3161 -0.3521
  278DG     C11 6382   0.754   1.424   2.835 -0.1197  0.1635 -0.8216
  278DG     C12 6383   0.971   1.746   2.552 -0.5432  0.3371  0.0487
  278DG     H13 6384   0.700   1.481   2.911  2.5693  2.4096 -0.4293
  278DG     H14 6385   0.700   1.331   2.820  1.5253 -1.0540  0.4030
  278DG     H15 6386   0.987   1.782   2.451 -1.5150  2.1013  0.4780
  278DG     H16 6387   0.940   1.832   2.612 -1.9463  0.0198 -0.1731
  278DG     C17 6388   0.736   1.492   2.703 -0.6352  0.0654  0.1079
  278DG     C18 6389   0.864   1.631   2.566 -0.0250 -0.4461  0.1799
  278DG     O19 6390   0.844   1.591   2.693  0.4738  0.0768 -0.2318
  278DG     H20 6391   0.632   1.523   2.692 -0.2340  1.3219 -0.3163
  278DG     H21 6392   0.737   1.412   2.629 -2.5119  0.2019 -0.1092
  278DG     H22 6393   0.772   1.674   2.528 -0.1849 -3.6082 -3.7329
  278DG     H23 6394   0.892   1.545   2.504  0.5693 -0.9760  1.1529
  279DG      C1 6395   2.147   3.731   4.697 -0.3016  0.2335  0.0320
  279DG      C2 6396   2.520   3.481   5.208  0.1490 -0.3769  0.7247
  279DG      H3 6397   2.062   3.727   4.764 -0.5761  2.7472 -0.0686
  279DG      H4 6398   2.110   3.709   4.597  1.6100 -1.0333 -0.4634
  279DG      H5 6399   2.176   3.837   4.692 -0.2046  0.1654 -1.4896
  279DG      H6 6400   2.591   3.562   5.224  0.3681 -0.3130 -0.4789
  279DG      H7 6401   2.425   3.512   5.249  0.1207 -1.3178  1.4011
  279DG      H8 6402   2.563   3.403   5.271  1.9191 -0.0394  0.0061
  279DG      O9 6403   2.263   3.650   4.742  0.0172  0.2101  1.0873
  279DG     O10 6404   2.484   3.445   5.075 -0.3811 -0.1289  0.3895
  279DG     C11 6405   2.350   3.612   4.639  0.2108 -0.0201  0.3202
  279DG     C12 6406   2.598   3.426   4.993 -0.2113 -0.5997 -0.5947
  279DG     H13 6407   2.409   3.692   4.596 -1.7635  1.6324  0.5574
  279DG     H14 6408   2.293   3.578   4.552 -0.4494 -0.9718  1.0937
  279DG     H15 6409   2.666   3.357   5.042  0.0964 -0.4352 -0.7889
  279DG     H16 6410   2.649   3.521   4.974 -3.5443  1.0509 -2.2638
  279DG     C17 6411   2.431   3.490   4.678  0.3513  0.3113  0.4262
  279DG     C18 6412   2.553   3.395   4.853  0.5176  0.0428  0.1346
  279DG     O19 6413   2.472   3.503   4.803 -0.2155 -0.5480 -0.3891
  279DG     H20 6414   2.507   3.473   4.601  0.7302 -0.1168  0.8835
  279DG     H21 6415   2.369   3.401   4.665 -0.1645  0.1443  3.3110
  279DG     H22 6416   2.640   3.392   4.788  2.4343  1.2577  2.4598
  279DG     H23 6417   2.490   3.306   4.846  0.5050  0.1555 -1.6802
  280DG      C1 6418   5.055   4.592   1.379  0.4746 -0.6991 -0.0240
  280DG      C2 6419   5.421   5.197   1.427 -0.4148  0.1899 -0.6694
  280DG      H3 6420   5.127   4.572   1.458 -2.1114 -0.0254  2.7267
  280DG      H4 6421   5.096   4.553   1.286  1.1287 -2.2709  0.8941
  280DG      H5 6422   4.958   4.545   1.400  1.4836 -2.2755  1.3557
  280DG      H6 6423   5.454   5.132   1.346 -0.3475 -0.0627 -0.4408
  280DG      H7 6424   5.434   5.304   1.409 -2.8722  0.6987  0.1957
  280DG      H8 6425   5.476   5.163   1.515 -1.0032 -2.0731 -1.1206
  280DG      O9 6426   5.059   4.738   1.379  0.7003  0.2638 -0.0087
  280DG     O10 6427   5.285   5.167   1.445  0.6258  0.0653  0.0869
  280DG     C11 6428   4.970   4.807   1.280  0.2945  0.3801  0.1896
  280DG     C12 6429   5.201   5.199   1.327 -0.5674 -0.2811  0.5661
  280DG     H13 6430   4.877   4.750   1.286  1.3856 -1.7777 -1.5564
  280DG     H14 6431   4.996   4.788   1.175  3.2595  0.4598  0.8221
  280DG     H15 6432   5.238   5.144   1.240 -0.9596 -1.1085  0.9076
  280DG     H16 6433   5.204   5.306   1.308  0.7641 -0.2832  0.6347
  280DG     C17 6434   4.934   4.950   1.316 -0.0965 -0.1879  0.0873
  280DG     C18 6435   5.058   5.143   1.342 -0.0522  0.2612  0.4663
  280DG     O19 6436   5.064   5.007   1.326  0.2459 -0.3660 -0.3517
  280DG     H20 6437   4.882   4.944   1.411 -2.0284 -0.6487 -0.9622
  280DG     H21 6438   4.866   4.994   1.244  0.0934 -0.6453 -0.3772
  280DG     H22 6439   5.028   5.153   1.447  0.3786 -2.5175  0.9313
  280DG     H23 6440   4.994   5.197   1.273  1.1425  0.5644 -0.4373
  281DG      C1 6441   5.324   4.354   4.465  0.8121  0.4680 -0.7272
  281DG      C2 6442   5.797   4.725   4.784 -0.2954  0.6473  0.2341
  281DG      H3 6443   5.244   4.377   4.535  0.1946  0.0480 -1.2941
  281DG      H4 6444   5.404   4.293   4.508 -0.1787 -2.0752 -2.2945
  281DG      H5 6445   5.274   4.298   4.387  1.2712 -1.1008  0.0647
  281DG      H6 6446   5.885   4.662   4.792 -0.2325  0.7946  0.7410
  281DG      H7 6447   5.821   4.832   4.782  1.4385  0.2706 -0.4994
  281DG      H8 6448   5.733   4.703   4.869 -0.1615  0.6876  0.3467
  281DG      O9 6449   5.370   4.484   4.427 -0.1695 -0.0970 -0.2869
  281DG     O10 6450   5.715   4.704   4.669 -0.3090 -0.2154  0.2683
  281DG     C11 6451   5.451   4.493   4.311 -0.0537  0.5005 -0.0416
  281DG     C12 6452   5.781   4.734   4.549 -0.1652 -0.2111  0.6127
  281DG     H13 6453   5.396   4.473   4.219 -0.6193  0.2327  0.3491
  281DG     H14 6454   5.517   4.406   4.310 -1.6039 -0.7125 -0.1006
  281DG     H15 6455   5.850   4.654   4.520  1.6397  1.5420 -0.1557
  281DG     H16 6456   5.831   4.830   4.552  2.4320 -1.4533  0.0769
  281DG     C17 6457   5.524   4.624   4.295  0.1393 -0.6002  0.0638
  281DG     C18 6458   5.679   4.750   4.427  0.2362 -0.1371  0.1078
  281DG     O19 6459   5.598   4.636   4.421  0.2302  0.0541  0.2638
  281DG     H20 6460   5.444   4.697   4.298 -1.0957 -1.9465  1.2928
  281DG     H21 6461   5.588   4.628   4.206 -0.6138 -2.4911 -0.6195
  281DG     H22 6462   5.608   4.831   4.448 -2.3808 -2.0701 -0.7997
  281DG     H23 6463   5.737   4.767   4.337  0.7734  0.0859  0.4865
  282DG      C1 6464   2.191   2.782   1.457 -1.7523 -0.5956  0.2662
  282DG      C2 6465   1.684   3.171   1.838 -0.1567  0.2057  1.0602
  282DG      H3 6466   2.201   2.731   1.361  3.5900 -0.3350  0.3972
  282DG      H4 6467   2.266   2.736   1.522 -1.2737 -1.1897 -0.6900
  282DG      H5 6468   2.219   2.883   1.425 -2.4458  0.4377  2.6647
  282DG      H6 6469   1.660   3.272   1.803  0.4600 -0.3467 -1.1000
  282DG      H7 6470   1.611   3.125   1.903 -0.4487 -2.5574 -1.0537
  282DG      H8 6471   1.768   3.190   1.905 -0.0496 -0.1408  1.0234
  282DG      O9 6472   2.066   2.766   1.513 -0.0367 -0.5724  0.2281
  282DG     O10 6473   1.717   3.086   1.726  0.0120  0.1099  0.0777
  282DG     C11 6474   2.054   2.809   1.652  0.2200 -0.1953  0.8791
  282DG     C12 6475   1.794   3.144   1.620 -0.0383  0.9555  0.3968
  282DG     H13 6476   2.153   2.810   1.699  1.0117 -1.2931 -0.6706
  282DG     H14 6477   2.013   2.724   1.707  0.8373 -0.9696  0.1845
  282DG     H15 6478   1.889   3.182   1.657 -0.1116  0.1816  1.4277
  282DG     H16 6479   1.746   3.229   1.571 -1.3271 -0.5780 -1.1390
  282DG     C17 6480   1.967   2.929   1.666  0.4776  0.3563  0.6085
  282DG     C18 6481   1.828   3.041   1.505  0.0801 -0.1030 -0.8466
  282DG     O19 6482   1.870   2.917   1.564  0.5467 -0.0848 -0.1288
  282DG     H20 6483   2.022   3.019   1.640 -0.2270  0.3230 -1.1364
  282DG     H21 6484   1.935   2.939   1.770  2.2311 -0.5165  1.2778
  282DG     H22 6485   1.744   3.016   1.440 -1.2217  0.8401  0.3998
  282DG     H23 6486   1.904   3.084   1.440  1.6324 -0.4158  0.6964
  283DG      C1 6487   1.646   0.733   0.634 -0.6331  0.5937  0.2622
  283DG      C2 6488   1.202   1.252   0.728 -0.3812 -0.0419  0.3907
  283DG      H3 6489   1.573   0.665   0.590  1.3055  0.1896 -2.6092
  283DG      H4 6490   1.647   0.722   0.743 -0.2221 -0.5108  0.1626
  283DG      H5 6491   1.741   0.688   0.606 -0.0976  2.5758 -1.3478
  283DG      H6 6492   1.154   1.168   0.778 -0.0329 -1.8077 -2.0989
  283DG      H7 6493   1.212   1.328   0.806  1.6283 -0.1935  0.3393
  283DG      H8 6494   1.132   1.277   0.649  0.1746 -1.4270 -0.5753
  283DG      O9 6495   1.610   0.861   0.582  0.3495 -0.0706 -0.1740
  283DG     O10 6496   1.328   1.214   0.676 -0.1449  0.0460  0.6208
  283DG     C11 6497   1.705   0.961   0.603 -0.8765  0.7584 -0.3798
  283DG     C12 6498   1.389   1.315   0.599 -0.1225 -0.1621 -0.0370
  283DG     H13 6499   1.792   0.916   0.554 -0.3342  1.8407 -0.4502
  283DG     H14 6500   1.715   0.975   0.711  0.3620 -0.1782 -0.3512
  283DG     H15 6501   1.427   1.385   0.674 -2.3809  1.1978 -0.0567
  283DG     H16 6502   1.320   1.373   0.538  0.5229  0.4554 -0.2000
  283DG     C17 6503   1.675   1.089   0.523  0.0543  0.2692 -0.1491
  283DG     C18 6504   1.487   1.247   0.507  0.4041 -0.3265  0.0985
  283DG     O19 6505   1.560   1.149   0.583 -0.4803  0.4932 -0.0561
  283DG     H20 6506   1.662   1.059   0.419  0.2327  0.6888 -0.2915
  283DG     H21 6507   1.757   1.161   0.521 -0.0623  0.4238  0.4436
  283DG     H22 6508   1.432   1.201   0.426 -0.3801 -1.2914  1.1426
  283DG     H23 6509   1.556   1.329   0.485 -0.3157  1.1852  2.9619
  284DG      C1 6510   5.398   4.432   0.393 -0.0382 -0.0546 -0.1566
  284DG      C2 6511   5.929   4.511  -0.000  0.2511  0.9950 -0.3547
  284DG      H3 6512   5.344   4.449   0.486 -0.8663  1.4308 -0.8667
  284DG      H4 6513   5.408   4.324   0.381  1.8443  0.1111 -0.3950
  284DG      H5 6514   5.331   4.467   0.315 -0.8492 -0.4135  0.3578
  284DG      H6 6515   6.035   4.488  -0.003  0.3020  0.9369  1.1797
  284DG      H7 6516   5.888   4.420  -0.043 -0.1220  1.0537 -0.1234
  284DG      H8 6517   5.916   4.589  -0.076  2.4347  1.1246 -0.6500
  284DG      O9 6518   5.532   4.480   0.390  0.5168  0.2627 -0.3322
  284DG     O10 6519   5.882   4.528   0.131  0.6816  0.0929 -0.2193
  284DG     C11 6520   5.529   4.619   0.431  0.0532 -0.6982 -0.2137
  284DG     C12 6521   5.942   4.643   0.185  0.0329  0.3990 -0.0210
  284DG     H13 6522   5.459   4.630   0.514 -0.8164 -0.1127 -1.0100
  284DG     H14 6523   5.484   4.674   0.349  1.1571  1.1322  0.3375
  284DG     H15 6524   5.935   4.734   0.125  0.9885  1.6345  1.6478
  284DG     H16 6525   6.050   4.632   0.195  0.2326 -0.2842 -2.2778
  284DG     C17 6526   5.678   4.659   0.447  0.4963 -0.3220 -0.3664
  284DG     C18 6527   5.876   4.675   0.322 -0.3607  0.0647 -0.0181
  284DG     O19 6528   5.741   4.640   0.320 -0.0812  0.0336 -0.3108
  284DG     H20 6529   5.714   4.604   0.534 -0.0937 -1.7451 -0.9826
  284DG     H21 6530   5.683   4.766   0.465  0.8519 -0.3365 -0.3730
  284DG     H22 6531   5.930   4.615   0.395 -0.2429  0.5809  0.3257
  284DG     H23 6532   5.887   4.780   0.349  1.5711 -0.4452  1.3571
  285DG      C1 6533   0.603   3.732   2.520 -0.0677  0.9511  0.3165
  285DG      C2 6534   0.738   4.484   2.530  0.1457 -0.0256  0.3418
  285DG      H3 6535   0.679   3.733   2.599  1.7758 -0.4007 -1.3243
  285DG      H4 6536   0.637   3.652   2.454 -0.2831  1.0354  0.1036
  285DG      H5 6537   0.508   3.707   2.567  0.3573  0.4667  0.9327
  285DG      H6 6538   0.729   4.465   2.637  1.9895 -0.2589  0.4824
  285DG      H7 6539   0.838   4.526   2.519  0.7532 -1.8038 -1.3699
  285DG      H8 6540   0.660   4.554   2.501 -1.9836 -2.6076 -0.5642
  285DG      O9 6541   0.593   3.861   2.453  0.6668  0.3464 -0.0157
  285DG     O10 6542   0.725   4.360   2.454 -0.2702  0.1216 -0.1788
  285DG     C11 6543   0.483   3.866   2.364 -0.2380 -0.1898 -0.1077
  285DG     C12 6544   0.604   4.281   2.475 -0.4553 -0.5046 -0.0578
  285DG     H13 6545   0.389   3.873   2.420  0.2641  4.1196  0.5454
  285DG     H14 6546   0.482   3.777   2.301 -2.2432  0.1053 -0.5791
  285DG     H15 6547   0.518   4.336   2.437  1.3663  2.2733 -0.4065
  285DG     H16 6548   0.586   4.261   2.581  1.1212  2.4916  0.8764
  285DG     C17 6549   0.491   3.990   2.279 -1.1276  0.1954 -0.4201
  285DG     C18 6550   0.616   4.147   2.392 -0.6156 -0.5986  0.0573
  285DG     O19 6551   0.480   4.103   2.366  0.0191  0.1984  0.5232
  285DG     H20 6552   0.401   3.982   2.218 -2.1574  1.8208  0.7871
  285DG     H21 6553   0.579   3.990   2.215 -0.0000 -0.7227  1.0708
  285DG     H22 6554   0.663   4.171   2.297 -0.2279 -0.9491  0.1557
  285DG     H23 6555   0.683   4.078   2.443 -0.2423 -1.3066 -1.3224
  286DG      C1 6556   1.304   4.594   4.014 -0.7776  0.4311 -0.2157
  286DG      C2 6557   0.651   4.747   3.777 -0.8926  0.2818 -0.1767
  286DG      H3 6558   1.267   4.566   4.112  0.3452 -1.8692 -0.3540
  286DG      H4 6559   1.410   4.622   4.018 -0.0763 -1.5574 -2.1438
  286DG      H5 6560   1.312   4.508   3.947  1.2487  0.5615 -0.2145
  286DG      H6 6561   0.632   4.714   3.879  1.9812  0.3811  0.4751
  286DG      H7 6562   0.617   4.849   3.768  0.9346  0.8544 -1.1316
  286DG      H8 6563   0.614   4.680   3.700  1.6599 -0.7018 -0.6484
  286DG      O9 6564   1.223   4.697   3.964 -0.7227  0.5481  0.4454
  286DG     O10 6565   0.794   4.747   3.783  0.1303  0.2765  0.0804
  286DG     C11 6566   1.279   4.747   3.845  0.0016  0.1585 -0.0299
  286DG     C12 6567   0.849   4.783   3.655 -0.2429 -0.1646 -0.4250
  286DG     H13 6568   1.299   4.672   3.769 -0.1957 -3.3319  3.0781
  286DG     H14 6569   1.375   4.797   3.858 -0.6170  2.2864 -2.7037
  286DG     H15 6570   0.779   4.855   3.612  0.7587 -0.9034 -3.5495
  286DG     H16 6571   0.851   4.697   3.588 -0.4813  0.1024 -0.7814
  286DG     C17 6572   1.179   4.855   3.788 -0.4114 -0.1055 -0.8411
  286DG     C18 6573   0.984   4.860   3.650 -0.8025  0.3934  0.0705
  286DG     O19 6574   1.067   4.786   3.746 -0.4141 -0.3275  0.0021
  286DG     H20 6575   1.227   4.886   3.695 -1.4277 -2.7826 -2.3749
  286DG     H21 6576   1.161   4.937   3.857  0.4415 -0.1676 -0.5276
  286DG     H22 6577   1.027   4.829   3.555  2.6343 -2.7225  2.3381
  286DG     H23 6578   0.979   4.969   3.661 -2.5985  0.5818 -1.8706
  287DG      C1 6579   1.639   4.342   5.004 -0.1590 -1.2068 -0.6582
  287DG      C2 6580   1.549   4.008   5.467 -0.8666 -0.2372 -0.2078
  287DG      H3 6581   1.619   4.355   4.898 -1.9171  0.4495 -0.1744
  287DG      H4 6582   1.566   4.395   5.065  1.7094  0.5633  0.1649
  287DG      H5 6583   1.638   4.236   5.032 -1.4335 -0.5154  2.3053
  287DG      H6 6584   1.574   3.968   5.565 -1.9806  0.4607  0.3728
  287DG      H7 6585   1.466   4.078   5.473  1.0392  2.5583 -3.1907
  287DG      H8 6586   1.531   3.932   5.391  2.1599 -1.6713  0.3487
  287DG      O9 6587   1.768   4.403   5.019  0.3586 -0.0198  0.0112
  287DG     O10 6588   1.654   4.103   5.432 -0.5730  0.0136  0.1021
  287DG     C11 6589   1.876   4.312   4.997  0.5465  0.1501 -0.3766
  287DG     C12 6590   1.774   4.042   5.389 -0.0115  0.0287  0.3709
  287DG     H13 6591   1.954   4.376   4.958  0.9086  0.0169  0.1137
  287DG     H14 6592   1.859   4.238   4.919 -2.1715  0.0623  0.1944
  287DG     H15 6593   1.766   3.950   5.330 -0.7898  1.4509 -1.8538
  287DG     H16 6594   1.826   4.018   5.482  0.3905  0.4668  0.2613
  287DG     C17 6595   1.926   4.259   5.128  0.2470  0.0925  0.0960
  287DG     C18 6596   1.880   4.135   5.317 -0.0136  0.4489 -0.1696
  287DG     O19 6597   1.831   4.173   5.193  0.3166  0.0253  0.6211
  287DG     H20 6598   1.942   4.345   5.193  0.0336  0.1086  0.1284
  287DG     H21 6599   2.025   4.217   5.113  0.2916 -0.0868  0.8409
  287DG     H22 6600   1.908   4.217   5.383  1.3729 -0.9083  1.0275
  287DG     H23 6601   1.977   4.085   5.318 -0.4109 -0.3516  0.6502
  288DG      C1 6602   4.555   2.187   2.480  0.2277  0.7279 -0.3235
  288DG      C2 6603   5.304   2.039   2.610  0.4034  0.1864 -0.0292
  288DG      H3 6604   4.455   2.222   2.503  0.9045  1.3220  1.9597
  288DG      H4 6605   4.537   2.083   2.453 -2.5001  1.1474 -0.3416
  288DG      H5 6606   4.611   2.239   2.401  2.3411  0.0005  0.6316
  288DG      H6 6607   5.355   2.024   2.706  1.9392  0.2490 -0.8129
  288DG      H7 6608   5.298   1.944   2.557 -3.7907 -0.1189  0.6270
  288DG      H8 6609   5.355   2.125   2.568  2.7818 -1.2353 -0.2150
  288DG      O9 6610   4.642   2.177   2.594 -0.2531 -0.4790  0.7586
  288DG     O10 6611   5.171   2.083   2.632 -0.2290  0.0999 -0.0066
  288DG     C11 6612   4.680   2.296   2.649  0.0534  0.2408  0.3309
  288DG     C12 6613   5.152   2.215   2.667 -0.0933  0.2557  0.2778
  288DG     H13 6614   4.597   2.345   2.700  0.3977  1.5292 -0.2988
  288DG     H14 6615   4.712   2.359   2.565  0.1877 -0.1940  0.0543
  288DG     H15 6616   5.165   2.285   2.585  1.0545 -0.2210  0.0291
  288DG     H16 6617   5.236   2.235   2.733  0.8855 -1.5080 -0.3566
  288DG     C17 6618   4.794   2.269   2.738 -0.3636  0.6791  0.3894
  288DG     C18 6619   5.027   2.230   2.760 -0.2551  0.0770  0.0515
  288DG     O19 6620   4.908   2.230   2.670  0.5978  0.5885  0.0415
  288DG     H20 6621   4.768   2.192   2.811  0.1085 -0.3957 -0.5430
  288DG     H21 6622   4.818   2.357   2.797  0.6677 -1.4353  3.3674
  288DG     H22 6623   5.027   2.148   2.832  3.5488  0.1159  0.2973
  288DG     H23 6624   5.032   2.322   2.817  1.4659  1.3141 -1.9546
  289DG      C1 6625   2.735   2.606   0.161  0.1658 -0.5288 -0.0982
  289DG      C2 6626   3.070   2.068   0.017 -0.3092 -0.8586  0.2659
  289DG      H3 6627   2.790   2.592   0.254 -0.4096  0.3967  0.4034
  289DG      H4 6628   2.633   2.573   0.182 -0.0238 -0.6044 -1.1142
  289DG      H5 6629   2.716   2.710   0.134  0.1118 -0.4344  0.2966
  289DG      H6 6630   2.981   2.005   0.019 -0.9888  0.0712 -0.0655
  289DG      H7 6631   3.145   2.007  -0.031 -0.9934 -0.6157 -1.1767
  289DG      H8 6632   3.102   2.087   0.120  0.9311 -1.2087 -0.0435
  289DG      O9 6633   2.802   2.532   0.059  0.7075 -0.0788  0.6186
  289DG     O10 6634   3.044   2.183  -0.058 -0.4281 -0.1595 -0.1639
  289DG     C11 6635   2.710   2.529  -0.057  0.4466  0.3325 -0.9514
  289DG     C12 6636   2.976   2.159  -0.185  0.3292 -0.0284 -0.1029
  289DG     H13 6637   2.682   2.632  -0.080 -2.2553 -0.0808  0.1830
  289DG     H14 6638   2.622   2.473  -0.027  1.4784 -1.3882 -0.9690
  289DG     H15 6639   2.901   2.081  -0.176  1.2559 -1.2841 -2.3524
  289DG     H16 6640   3.049   2.126  -0.260 -0.8869  1.5512 -2.0911
  289DG     C17 6641   2.765   2.457  -0.180 -0.2279  0.7055 -0.2880
  289DG     C18 6642   2.915   2.291  -0.231  0.2210 -0.1298  0.4840
  289DG     O19 6643   2.827   2.338  -0.135 -0.5398  0.0630  0.0415
  289DG     H20 6644   2.839   2.520  -0.228  1.8949 -0.8332  0.8101
  289DG     H21 6645   2.688   2.420  -0.247  0.2001 -3.6226  1.3078
  289DG     H22 6646   2.998   2.358  -0.255  0.1403 -0.8010 -1.9528
  289DG     H23 6647   2.871   2.278  -0.330  0.6055 -0.8596  0.4018
  290DG      C1 6648   2.356   5.407   2.346 -0.0349  0.3216 -0.0504
  290DG      C2 6649   1.609   5.606   2.145  0.1211  0.0178 -0.2500
  290DG      H3 6650   2.385   5.504   2.386 -2.5975  0.5271  1.5992
  290DG      H4 6651   2.448   5.351   2.328  0.8685  1.5424  0.6120
  290DG      H5 6652   2.297   5.344   2.412  1.0824 -0.9411 -0.2075
  290DG      H6 6653   1.519   5.633   2.090 -1.4509 -3.4335  0.3298
  290DG      H7 6654   1.587   5.548   2.235 -0.5487  0.3275 -0.2090
  290DG      H8 6655   1.664   5.693   2.179  0.9575  0.2671 -2.1169
  290DG      O9 6656   2.288   5.425   2.221 -0.3423  0.4229  0.7421
  290DG     O10 6657   1.701   5.523   2.073  0.2554  0.4373 -0.4739
  290DG     C11 6658   2.236   5.299   2.174 -0.3973 -0.3140 -0.5030
  290DG     C12 6659   1.805   5.468   2.151 -0.2725  0.1065  0.1154
  290DG     H13 6660   2.193   5.246   2.259  1.9752  1.0243  1.6729
  290DG     H14 6661   2.307   5.225   2.137 -2.3931 -3.6062  1.7294
  290DG     H15 6662   1.771   5.372   2.188 -1.6806 -0.4641 -2.4342
  290DG     H16 6663   1.833   5.535   2.233  0.2125  0.1325 -0.0692
  290DG     C17 6664   2.133   5.332   2.063 -0.2077  0.7297 -0.6696
  290DG     C18 6665   1.916   5.434   2.053 -0.4568 -0.6519 -0.4107
  290DG     O19 6666   2.032   5.406   2.131  0.3323 -0.1989 -0.4440
  290DG     H20 6667   2.096   5.236   2.027  0.4051 -0.3718  1.4468
  290DG     H21 6668   2.183   5.394   1.989  1.4795  1.3476  0.9287
  290DG     H22 6669   1.881   5.352   1.990 -0.0899 -0.8190 -0.4002
  290DG     H23 6670   1.933   5.518   1.985 -3.0826  0.4920  0.2365
  291DG      C1 6671   1.643   0.296   2.522 -0.1010 -0.3420  0.1704
  291DG      C2 6672   1.124   0.383   2.915 -0.4899  0.1416  0.4036
  291DG      H3 6673   1.694   0.218   2.578  0.9579  0.2910  0.1067
  291DG      H4 6674   1.682   0.391   2.558  0.4406 -0.4800 -0.0406
  291DG      H5 6675   1.656   0.277   2.416 -3.9648 -2.4707 -0.1395
  291DG      H6 6676   1.051   0.368   2.995 -1.2023  0.1340 -0.2407
  291DG      H7 6677   1.169   0.478   2.946 -0.9431  0.8988 -1.1372
  291DG      H8 6678   1.066   0.416   2.829  0.5990  4.1325  0.9548
  291DG      O9 6679   1.503   0.284   2.554 -0.5639 -0.2946 -0.5332
  291DG     O10 6680   1.213   0.270   2.890  0.0089 -0.6486  0.4320
  291DG     C11 6681   1.454   0.158   2.509 -0.1232 -0.0945 -0.1616
  291DG     C12 6682   1.150   0.151   2.842  0.5833  0.0576 -0.5336
  291DG     H13 6683   1.529   0.079   2.519  3.0812  1.9508 -4.4091
  291DG     H14 6684   1.434   0.157   2.402 -0.7880  0.6182 -0.0489
  291DG     H15 6685   1.083   0.166   2.757 -0.4912 -1.0954  0.0660
  291DG     H16 6686   1.088   0.100   2.916 -1.5698  0.5643 -1.8979
  291DG     C17 6687   1.326   0.119   2.583  0.2521  0.0835  0.1393
  291DG     C18 6688   1.266   0.057   2.805 -0.7058  0.2513 -0.4029
  291DG     O19 6689   1.367   0.117   2.722  0.0660 -0.4181  0.4257
  291DG     H20 6690   1.300   0.019   2.548 -0.5983  0.8740 -1.6049
  291DG     H21 6691   1.243   0.189   2.570  0.7283  0.3457 -1.6899
  291DG     H22 6692   1.325   0.025   2.891  0.5224  0.4234 -1.1454
  291DG     H23 6693   1.228  -0.029   2.749 -1.7918  1.2366 -1.2211
  292DG      C1 6694   3.273   2.175   2.032 -0.9508  0.6468  0.2789
  292DG      C2 6695   2.910   2.742   1.538  0.3512 -0.5115 -0.5731
  292DG      H3 6696   3.228   2.146   2.127 -1.5267 -1.5450 -0.5941
  292DG      H4 6697   3.376   2.205   2.051 -0.6388 -1.1730  1.7729
  292DG      H5 6698   3.262   2.082   1.976 -0.8984 -0.6628  2.3157
  292DG      H6 6699   2.904   2.734   1.429  1.4701 -0.4831 -0.6485
  292DG      H7 6700   2.815   2.707   1.579  0.8385  0.0375  1.0940
  292DG      H8 6701   2.923   2.842   1.579  0.3051 -0.5582 -0.4440
  292DG      O9 6702   3.198   2.282   1.967  0.4270 -0.0341 -0.0715
  292DG     O10 6703   3.018   2.659   1.578 -0.5213  0.0974 -0.1213
  292DG     C11 6704   3.058   2.270   1.980  0.2854  0.1486  0.4827
  292DG     C12 6705   2.998   2.517   1.572 -0.1684 -0.6343 -0.2033
  292DG     H13 6706   3.026   2.240   2.080  0.1082 -0.1617  0.3354
  292DG     H14 6707   3.029   2.193   1.908  0.8100  0.3504  0.0521
  292DG     H15 6708   3.102   2.492   1.552  0.3145  0.0114  1.2947
  292DG     H16 6709   2.937   2.493   1.486  1.6337  0.4107 -1.8683
  292DG     C17 6710   2.990   2.402   1.940 -0.2167  0.3068  0.0075
  292DG     C18 6711   2.959   2.443   1.698  0.3527 -0.0661  0.1791
  292DG     O19 6712   3.038   2.456   1.815 -0.0314 -0.4522  0.2724
  292DG     H20 6713   3.019   2.476   2.015 -2.5766  0.7921  0.5405
  292DG     H21 6714   2.881   2.398   1.940 -0.3107  1.9188 -0.9693
  292DG     H22 6715   2.861   2.479   1.728 -0.3098 -2.8488  1.6693
  292DG     H23 6716   2.953   2.336   1.677 -1.5448  0.2824 -1.3499
  293DG      C1 6717   2.690   5.250   2.140 -0.9206 -0.0747  0.2035
  293DG      C2 6718   2.159   4.919   1.828 -0.0269 -0.1625 -0.6704
  293DG      H3 6719   2.603   5.299   2.184 -1.8724 -2.1087  0.6813
  293DG      H4 6720   2.763   5.328   2.116  1.1685 -1.6773  1.0367
  293DG      H5 6721   2.734   5.179   2.210 -0.9661  0.3058  0.6236
  293DG      H6 6722   2.081   4.985   1.867  0.3039 -0.3548  0.3608
  293DG      H7 6723   2.137   4.860   1.739  0.5818 -2.1113  0.3963
  293DG      H8 6724   2.192   4.855   1.910  1.9183 -0.3712 -1.5667
  293DG      O9 6725   2.650   5.183   2.024 -0.0434 -0.1581  0.0768
  293DG     O10 6726   2.274   4.987   1.800  0.0979 -0.1056  0.4372
  293DG     C11 6727   2.577   5.263   1.935  0.6302  0.2710 -0.5746
  293DG     C12 6728   2.244   5.071   1.689 -0.1472 -0.4866  0.2406
  293DG     H13 6729   2.620   5.346   1.879  0.9269  0.8216  0.4567
  293DG     H14 6730   2.493   5.300   1.993  1.0401 -0.8903  0.8236
  293DG     H15 6731   2.159   5.134   1.711 -0.0782  0.8688 -2.8772
  293DG     H16 6732   2.218   5.013   1.600  1.6780 -1.6006  0.3589
  293DG     C17 6733   2.518   5.160   1.828 -0.4796 -0.1367 -0.4831
  293DG     C18 6734   2.367   5.151   1.651 -0.1729  0.6389 -0.0940
  293DG     O19 6735   2.413   5.231   1.759  0.2897  0.5235  0.5230
  293DG     H20 6736   2.461   5.087   1.885  0.2449  0.0015  0.4456
  293DG     H21 6737   2.596   5.115   1.768  1.6878 -0.3165  2.2676
  293DG     H22 6738   2.450   5.094   1.609 -0.9245 -0.4381 -0.1519
  293DG     H23 6739   2.344   5.220   1.570 -2.3397  0.1088  0.0322
  294DG      C1 6740   3.864   5.102   3.231 -0.1368  0.0506 -0.3800
  294DG      C2 6741   3.444   4.594   3.166  0.2123 -0.1586 -0.0456
  294DG      H3 6742   3.826   5.164   3.313 -3.6467 -2.5372  0.1850
  294DG      H4 6743   3.797   5.116   3.146 -1.6534  0.2696  0.8069
  294DG      H5 6744   3.959   5.144   3.198  0.1679 -0.1038  0.2941
  294DG      H6 6745   3.423   4.664   3.085  1.5851  1.4101  0.8854
  294DG      H7 6746   3.430   4.498   3.116 -0.4879  0.1467 -0.4414
  294DG      H8 6747   3.378   4.611   3.251  2.3606 -0.2772  1.7627
  294DG      O9 6748   3.874   4.965   3.277  0.3411 -0.3022  0.3725
  294DG     O10 6749   3.573   4.628   3.201 -0.1193 -0.7883  0.5813
  294DG     C11 6750   3.938   4.877   3.189 -0.1600  0.8338 -0.0062
  294DG     C12 6751   3.636   4.542   3.294 -0.6537  0.0238 -0.1543
  294DG     H13 6752   4.038   4.908   3.162  1.1683 -2.1168  1.0909
  294DG     H14 6753   3.871   4.857   3.104  2.3333 -0.5504 -1.7771
  294DG     H15 6754   3.611   4.436   3.291  0.7095 -0.2929 -0.8203
  294DG     H16 6755   3.604   4.577   3.392 -2.3251  0.5533 -0.8455
  294DG     C17 6756   3.955   4.743   3.257  0.6916 -0.3593  0.3886
  294DG     C18 6757   3.792   4.565   3.303  0.5566 -0.5713 -0.2747
  294DG     O19 6758   3.827   4.707   3.305 -0.3374  0.7965  0.4384
  294DG     H20 6759   4.028   4.748   3.338 -1.1395 -1.3684  2.2282
  294DG     H21 6760   3.987   4.680   3.174  0.3757  0.1155 -0.0952
  294DG     H22 6761   3.818   4.525   3.401 -2.1206 -0.6102  0.4995
  294DG     H23 6762   3.834   4.500   3.226  0.0583  0.1301 -1.1523
  295DG      C1 6763   2.926   2.647   2.769 -0.2548  0.1907 -0.1182
  295DG      C2 6764   2.701   2.544   3.381  0.0434  0.1035 -0.2976
  295DG      H3 6765   2.987   2.560   2.793 -1.7429 -0.6623  0.6816
  295DG      H4 6766   2.969   2.728   2.829  0.5311 -1.5568  1.7748
  295DG      H5 6767   2.942   2.672   2.664  0.1309 -1.4546 -0.4775
  295DG      H6 6768   2.739   2.638   3.420 -0.1024 -1.1859  3.4649
  295DG      H7 6769   2.627   2.494   3.444 -0.2991 -2.0943 -2.2784
  295DG      H8 6770   2.781   2.470   3.379  1.5043  1.5955 -3.4886
  295DG      O9 6771   2.798   2.610   2.820 -0.4239 -0.3330  0.1958
  295DG     O10 6772   2.661   2.554   3.244  0.3104  0.8640 -0.3717
  295DG     C11 6773   2.697   2.713   2.813 -0.3416 -0.5450  0.3949
  295DG     C12 6774   2.537   2.618   3.228 -0.1961  0.5186  0.2977
  295DG     H13 6775   2.674   2.735   2.709  0.9025 -1.7043 -0.1610
  295DG     H14 6776   2.737   2.806   2.854 -1.7332 -0.4823  1.6567
  295DG     H15 6777   2.549   2.724   3.251  1.9863  0.0324  1.5786
  295DG     H16 6778   2.458   2.572   3.287  0.3635  0.5138  1.0491
  295DG     C17 6779   2.570   2.674   2.878  0.5289  0.1870  0.0622
  295DG     C18 6780   2.490   2.613   3.089 -0.5583 -0.0781 -0.7481
  295DG     O19 6781   2.595   2.665   3.013  0.5320  0.0570  0.2375
  295DG     H20 6782   2.515   2.594   2.828  1.8671  0.0625 -1.2925
  295DG     H21 6783   2.500   2.754   2.853 -2.9767 -2.0189  1.8928
  295DG     H22 6784   2.462   2.518   3.044 -0.1605  0.6675 -2.6429
  295DG     H23 6785   2.399   2.672   3.084 -0.9941 -0.7532 -0.9412
  296DG      C1 6786   0.727   5.401   0.705  0.4605 -0.8419 -0.4740
  296DG      C2 6787   0.802   5.135   1.299 -0.2131 -0.2972  0.0986
  296DG      H3 6788   0.619   5.403   0.718  0.2627  1.4479 -1.7425
  296DG      H4 6789   0.754   5.300   0.674 -2.6248 -1.2090 -2.3860
  296DG      H5 6790   0.733   5.470   0.620 -0.8601  1.7918  1.4327
  296DG      H6 6791   0.714   5.075   1.275 -0.1339  0.1229 -1.3391
  296DG      H7 6792   0.896   5.092   1.265  0.7419  1.2105  0.7350
  296DG      H8 6793   0.815   5.131   1.407 -0.7404  1.5969  0.2671
  296DG      O9 6794   0.800   5.455   0.814 -0.7666  0.3664  0.4981
  296DG     O10 6795   0.805   5.266   1.244 -0.0388 -0.3385 -0.8250
  296DG     C11 6796   0.762   5.585   0.854 -0.2373 -0.1583  0.3443
  296DG     C12 6797   0.715   5.364   1.279  0.6293 -0.3949 -0.4241
  296DG     H13 6798   0.653   5.587   0.854 -0.2483  0.7445 -1.1769
  296DG     H14 6799   0.811   5.659   0.792  0.5195 -0.0935  1.0103
  296DG     H15 6800   0.707   5.374   1.388  1.6463  2.8817 -0.5461
  296DG     H16 6801   0.614   5.337   1.248  1.0075 -1.1506 -1.0360
  296DG     C17 6802   0.811   5.596   0.999 -0.5703  0.1968 -0.0732
  296DG     C18 6803   0.743   5.499   1.209  0.3288  0.6110  0.2022
  296DG     O19 6804   0.739   5.487   1.063 -0.6751 -0.1543  0.6064
  296DG     H20 6805   0.786   5.695   1.037 -1.9284 -0.3927  0.6529
  296DG     H21 6806   0.919   5.587   0.991 -0.6189 -0.1125 -0.4120
  296DG     H22 6807   0.664   5.569   1.235  1.6144  1.9606  0.6300
  296DG     H23 6808   0.841   5.534   1.241  1.4479 -2.5591  0.6459
  297DG      C1 6809   1.590   2.147   1.572  0.5742 -0.3476 -0.4902
  297DG      C2 6810   2.147   2.475   1.794  0.5973  0.1775 -0.1374
  297DG      H3 6811   1.535   2.082   1.504  0.3030 -1.1061  0.4290
  297DG      H4 6812   1.512   2.212   1.610 -2.1104 -3.0762 -0.9604
  297DG      H5 6813   1.629   2.083   1.652 -1.2372 -0.7064  0.1370
  297DG      H6 6814   2.080   2.523   1.866  0.3887  2.0849 -1.5255
  297DG      H7 6815   2.161   2.373   1.829 -0.5744  0.2684  0.6669
  297DG      H8 6816   2.234   2.541   1.793 -0.3839  1.5103 -0.1931
  297DG      O9 6817   1.698   2.217   1.510 -0.8426  0.0161 -0.0532
  297DG     O10 6818   2.083   2.458   1.667  0.0312  0.0179 -0.1232
  297DG     C11 6819   1.792   2.133   1.437 -0.2315 -0.0730  1.0419
  297DG     C12 6820   2.167   2.412   1.566  0.1478 -0.2455 -0.3538
  297DG     H13 6821   1.742   2.077   1.358  1.2123 -2.1976  1.5441
  297DG     H14 6822   1.831   2.051   1.498  0.1740 -0.2923  0.4928
  297DG     H15 6823   2.221   2.320   1.590  2.3768  1.0020 -0.3497
  297DG     H16 6824   2.235   2.495   1.548 -1.5587  1.5084  0.8413
  297DG     C17 6825   1.904   2.220   1.378  0.1783 -0.5425 -0.9068
  297DG     C18 6826   2.080   2.379   1.438  0.0295  0.2534 -0.1940
  297DG     O19 6827   1.960   2.301   1.482  0.5872  0.3357  0.5280
  297DG     H20 6828   1.866   2.290   1.304 -2.0136 -0.1233  0.5158
  297DG     H21 6829   1.974   2.159   1.321  1.7920 -0.3288  0.7826
  297DG     H22 6830   2.066   2.466   1.373  1.8441  1.2531  0.6808
  297DG     H23 6831   2.146   2.313   1.382  0.2889 -1.5482  2.0825
  298DG      C1 6832   2.664   0.152   3.255  0.1535  0.4482 -0.1364
  298DG      C2 6833   2.003  -0.134   3.101 -0.8868  0.2999  0.2581
  298DG      H3 6834   2.711   0.068   3.204  1.5610  0.1306  1.6036
  298DG      H4 6835   2.675   0.128   3.360  0.4676 -0.4730 -0.3711
  298DG      H5 6836   2.710   0.247   3.226 -1.7574  1.4488 -0.0954
  298DG      H6 6837   1.927  -0.095   3.034 -0.5372 -1.1668 -1.0537
  298DG      H7 6838   2.065  -0.210   3.052 -1.0689 -0.1990  0.7773
  298DG      H8 6839   1.953  -0.193   3.178  0.6073  0.5262  1.4619
  298DG      O9 6840   2.524   0.148   3.212  0.2052 -0.0746 -0.9450
  298DG     O10 6841   2.083  -0.030   3.155 -0.3572 -0.1354  0.3207
  298DG     C11 6842   2.466   0.278   3.251 -0.3880 -0.1402  0.5062
  298DG     C12 6843   2.008   0.077   3.186 -0.2695 -0.7638 -0.4925
  298DG     H13 6844   2.471   0.333   3.157  3.5611 -1.5864 -0.3072
  298DG     H14 6845   2.527   0.326   3.328  0.6733  1.3213 -1.1676
  298DG     H15 6846   1.914   0.070   3.240 -0.9539  0.9728 -1.3983
  298DG     H16 6847   1.993   0.130   3.092 -0.3466 -0.3514 -0.2476
  298DG     C17 6848   2.319   0.270   3.310  0.2706 -0.5914  0.9350
  298DG     C18 6849   2.098   0.187   3.265 -0.4305 -0.2532  0.1874
  298DG     O19 6850   2.230   0.206   3.216  0.4993  0.1170 -0.2668
  298DG     H20 6851   2.281   0.370   3.333  2.3015  0.8125 -1.3630
  298DG     H21 6852   2.322   0.207   3.399 -0.8419 -0.7358  0.8903
  298DG     H22 6853   2.063   0.290   3.256 -0.1817 -0.1193  0.7228
  298DG     H23 6854   2.099   0.156   3.369  2.5420 -0.0572  0.3000
  299DG      C1 6855   4.524   1.617   4.508 -0.4456 -0.1465 -0.3715
  299DG      C2 6856   4.415   1.404   5.119  0.0504  0.4166 -0.4297
  299DG      H3 6857   4.499   1.678   4.421 -0.0008 -1.0367 -1.1498
  299DG      H4 6858   4.477   1.520   4.493 -0.3268 -0.0974 -1.1049
  299DG      H5 6859   4.633   1.612   4.501 -0.5248 -2.1699 -0.6206
  299DG      H6 6860   4.325   1.355   5.080 -0.5761 -0.1743  1.6586
  299DG      H7 6861   4.501   1.345   5.087 -1.1901 -0.9135 -1.4660
  299DG      H8 6862   4.415   1.417   5.227  1.0455  0.7481 -0.4647
  299DG      O9 6863   4.481   1.670   4.635 -0.1777 -0.2025 -0.1203
  299DG     O10 6864   4.415   1.525   5.040 -0.4868  0.0673  0.2856
  299DG     C11 6865   4.572   1.774   4.683  0.7691 -0.2841  0.3955
  299DG     C12 6866   4.489   1.624   5.107 -0.0271  0.7715  0.6285
  299DG     H13 6867   4.583   1.855   4.611 -1.0269  0.8814  1.3601
  299DG     H14 6868   4.675   1.740   4.689  0.8130 -0.9872 -2.6654
  299DG     H15 6869   4.592   1.588   5.116  0.1383  0.0219 -2.7658
  299DG     H16 6870   4.456   1.640   5.210 -0.0637 -1.5826  1.0499
  299DG     C17 6871   4.519   1.831   4.813 -0.2506  0.0151 -0.0613
  299DG     C18 6872   4.480   1.752   5.035 -0.3782  0.4990  0.3413
  299DG     O19 6873   4.505   1.721   4.896  0.3953  0.2639 -0.1229
  299DG     H20 6874   4.420   1.877   4.807  1.1737  3.1912 -1.7814
  299DG     H21 6875   4.583   1.908   4.856  2.5732 -0.6869 -2.6464
  299DG     H22 6876   4.381   1.798   5.033 -0.4148  0.4286 -1.2063
  299DG     H23 6877   4.555   1.822   5.072 -1.1642  0.6163  1.7560
  300DG      C1 6878   4.850   2.077   1.898 -0.4093  0.5848 -0.3193
  300DG      C2 6879   4.199   2.432   1.624 -0.2683 -0.1509  0.5527
  300DG      H3 6880   4.944   2.045   1.854  1.0113  0.2966  2.6863
  300DG      H4 6881   4.793   1.990   1.930  2.5672 -2.0182 -1.5906
  300DG      H5 6882   4.868   2.152   1.975 -1.5959  3.2658 -2.4813
  300DG      H6 6883   4.193   2.538   1.600 -1.9415  0.3412  2.8858
  300DG      H7 6884   4.104   2.380   1.611 -1.7306  2.8702 -2.0206
  300DG      H8 6885   4.192   2.439   1.732 -0.8465 -0.2583  0.5277
  300DG      O9 6886   4.775   2.138   1.798 -0.1420 -0.0897  0.0485
  300DG     O10 6887   4.304   2.356   1.574  0.2628  0.3890  0.1587
  300DG     C11 6888   4.735   2.051   1.702  0.0024 -0.2199  0.4694
  300DG     C12 6889   4.325   2.229   1.640  0.2113 -0.6266 -0.0924
  300DG     H13 6890   4.652   1.992   1.742 -1.5063  0.2870 -1.7010
  300DG     H14 6891   4.822   1.992   1.672 -0.1388  1.0090 -2.7533
  300DG     H15 6892   4.240   2.164   1.621  0.3272 -0.0979 -2.8646
  300DG     H16 6893   4.337   2.224   1.748 -0.3791 -1.7519 -0.0690
  300DG     C17 6894   4.680   2.139   1.588 -0.8124 -0.2267 -0.0955
  300DG     C18 6895   4.439   2.152   1.568  0.3024 -0.2109 -0.9574
  300DG     O19 6896   4.556   2.196   1.629  0.4936  0.0542  0.3153
  300DG     H20 6897   4.670   2.084   1.495 -0.0443 -2.4243  1.0484
  300DG     H21 6898   4.742   2.227   1.571 -0.0395 -0.8418 -0.4997
  300DG     H22 6899   4.433   2.045   1.588 -2.1410 -0.1960 -1.3242
  300DG     H23 6900   4.426   2.162   1.460  0.1031  3.1597 -0.6967
  301THF     O1 6901   2.108   1.594   2.182  0.1237  0.2107 -0.1183
  301THF     C2 6902   2.102   1.733   2.184  0.1414  0.8391 -0.4466
  301THF     C3 6903   2.115   1.548   2.321 -0.8377  0.6715 -0.6092
  301THF     H4 6904   2.004   1.761   2.222  0.7948  0.1575  1.9173
  301THF     H5 6905   2.125   1.790   2.094 -0.5645  1.7062 -0.0972
  301THF     H6 6906   2.017   1.523   2.361 -0.6909 -2.5229 -1.9628
  301THF     H7 6907   2.169   1.454   2.318 -0.6560  0.7349  0.3852
  301THF     C8 6908   2.190   1.657   2.397 -0.5921 -0.9254  0.2011
  301THF     C9 6909   2.215   1.764   2.286  0.4949  0.0084  0.6370
  301THF    H10 6910   2.289   1.635   2.437  0.5220  0.0371 -1.8760
  301THF    H11 6911   2.136   1.708   2.477 -0.6955  1.0041 -1.0365
  301THF    H12 6912   2.207   1.867   2.320 -0.7992 -0.4051  1.6741
  301THF    H13 6913   2.306   1.746   2.230 -0.3339 -0.6741 -0.5323
  302THF     O1 6914   4.974   0.523   3.079 -0.0656  0.1359 -0.0369
  302THF     C2 6915   5.019   0.444   2.980 -0.1618  0.5241 -0.4069
  302THF     C3 6916   4.863   0.457   3.131 -0.6576 -0.4966  0.2971
  302THF     H4 6917   5.124   0.466   2.961  0.5686  0.0904  2.6314
  302THF     H5 6918   4.964   0.459   2.888  0.4198 -1.8217 -1.2195
  302THF     H6 6919   4.823   0.506   3.220 -1.0703  1.8228 -1.0763
  302THF     H7 6920   4.775   0.466   3.067  0.0682  0.0243 -0.6333
  302THF     C8 6921   4.908   0.311   3.143  0.3740 -0.4099  0.3983
  302THF     C9 6922   5.009   0.301   3.035 -0.3259  0.2933 -0.3146
  302THF    H10 6923   4.822   0.251   3.115 -0.7250  1.1623  0.3197
  302THF    H11 6924   4.931   0.277   3.244  0.6042  0.9202  0.8134
  302THF    H12 6925   5.097   0.267   3.089  0.4009  0.0915 -1.5661
  302THF    H13 6926   4.967   0.223   2.972 -4.1111  1.1024  0.9797
  303THF     O1 6927   2.612   0.640   2.545  0.3604  0.0933  0.1143
  303THF     C2 6928   2.475   0.619   2.572  0.0644 -0.7475  0.8453
  303THF     C3 6929   2.678   0.515   2.544  0.1399  0.3032  0.5110
  303THF     H4 6930   2.411   0.632   2.485 -1.2164 -0.4593  1.7842
  303THF     H5 6931   2.450   0.695   2.647  0.0833 -0.6211  0.7247
  303THF     H6 6932   2.657   0.480   2.443 -1.2502 -0.0040  0.8855
  303THF     H7 6933   2.786   0.528   2.550  0.1058  0.5281  0.6250
  303THF     C8 6934   2.607   0.431   2.648 -0.2679  0.0557  0.2889
  303THF     C9 6935   2.463   0.476   2.626 -0.2812 -0.3543 -0.1654
  303THF    H10 6936   2.640   0.453   2.749  0.9123  1.4314 -0.3643
  303THF    H11 6937   2.611   0.323   2.633 -1.3462  0.0687 -0.2055
  303THF    H12 6938   2.433   0.426   2.534  0.4729  0.5117 -0.9062
  303THF    H13 6939   2.410   0.470   2.721 -0.3070 -2.5761 -0.2693
  304THF     O1 6940   5.441   4.143   0.556  0.1966 -0.4119  0.0505
  304THF     C2 6941   5.573   4.165   0.593 -0.2265  0.7766 -0.3182
  304THF     C3 6942   5.390   4.032   0.632 -0.3452  0.0929 -0.5780
  304THF     H4 6943   5.570   4.223   0.685  1.9972  0.6722 -0.1270
  304THF     H5 6944   5.623   4.222   0.514  0.5117  0.3721 -0.1544
  304THF     H6 6945   5.363   4.068   0.731 -0.0168  0.9290 -0.7853
  304THF     H7 6946   5.300   3.987   0.589  0.1834 -0.8349 -0.7313
  304THF     C8 6947   5.510   3.935   0.634  0.2618  0.0104  0.3274
  304THF     C9 6948   5.634   4.027   0.619 -0.6873 -0.4306 -0.3675
  304THF    H10 6949   5.506   3.882   0.538  1.4198  2.5145 -1.2088
  304THF    H11 6950   5.500   3.852   0.704  0.4534 -0.7087 -0.4645
  304THF    H12 6951   5.699   4.020   0.706 -1.1139 -0.1170 -0.0175
  304THF    H13 6952   5.705   4.007   0.540  1.7610  1.7192  1.1509
  305THF     O1 6953   2.990   3.006   0.363  0.0780  0.5609  0.2088
  305THF     C2 6954   2.922   2.923   0.277  0.3965 -0.2100  0.0040
  305THF     C3 6955   3.041   3.115   0.297 -0.2281 -0.4845 -0.5713
  305THF     H4 6956   2.859   2.861   0.340  0.4078  1.1633  1.4381
  305THF     H5 6957   2.987   2.850   0.230  0.2895  0.7243 -1.6730
  305THF     H6 6958   3.052   3.196   0.368 -2.6313 -0.0207 -0.6442
  305THF     H7 6959   3.132   3.090   0.243 -0.0279  1.0562 -0.9967
  305THF     C8 6960   2.938   3.141   0.182 -0.3810 -0.5628  0.0030
  305THF     C9 6961   2.843   3.017   0.188  0.0838 -0.0001  0.2970
  305THF    H10 6962   2.978   3.162   0.082  0.2754 -0.7373  0.2235
  305THF    H11 6963   2.881   3.225   0.221  1.2704  0.3898  0.4716
  305THF    H12 6964   2.743   3.046   0.222 -1.3382 -1.4263 -2.3618
  305THF    H13 6965   2.837   2.971   0.090  1.2216 -1.3063  0.8146
  306THF     O1 6966   2.509   1.444   2.323  0.0517 -0.3054 -0.8657
  306THF     C2 6967   2.596   1.416   2.432  0.0339  0.1288  0.0485
  306THF     C3 6968   2.580   1.523   2.219  0.2540  0.2547 -0.4100
  306THF     H4 6969   2.604   1.308   2.447  1.0813 -0.2702 -2.7186
  306THF     H5 6970   2.548   1.455   2.522 -0.4159  0.0520 -0.1567
  306THF     H6 6971   2.609   1.451   2.143  1.6420  1.0198 -0.6357
  306THF     H7 6972   2.505   1.586   2.171  0.2931  1.4778  1.0236
  306THF     C8 6973   2.700   1.584   2.295 -0.4702 -0.3733  0.2094
  306THF     C9 6974   2.731   1.480   2.400 -0.5763 -0.0912  0.2267
  306THF    H10 6975   2.668   1.675   2.346  2.4249  1.2893 -0.7525
  306THF    H11 6976   2.779   1.622   2.231 -0.7462  3.6128  1.9438
  306THF    H12 6977   2.794   1.404   2.356  2.7798  0.5038  3.5581
  306THF    H13 6978   2.788   1.527   2.480  0.4578  0.0869 -0.5884
  307THF     O1 6979   1.288   1.547   2.224 -0.5425 -0.1799 -0.0588
  307THF     C2 6980   1.409   1.583   2.294 -0.6367 -0.3922  0.1758
  307THF     C3 6981   1.304   1.446   2.128  0.2507 -0.3030  0.1569
  307THF     H4 6982   1.403   1.541   2.395  1.0240 -1.1294  0.0017
  307THF     H5 6983   1.432   1.689   2.302  2.9587 -0.6702 -3.3159
  307THF     H6 6984   1.240   1.359   2.144 -0.2880 -0.2981 -1.7657
  307THF     H7 6985   1.297   1.479   2.024  1.3472 -1.6843 -0.3834
  307THF     C8 6986   1.446   1.396   2.155 -0.5450  0.3483  1.3707
  307THF     C9 6987   1.517   1.509   2.226 -0.1267  0.5801  0.1645
  307THF    H10 6988   1.506   1.370   2.067 -0.3187  1.4170  1.1956
  307THF    H11 6989   1.440   1.310   2.222 -0.0027 -3.3413 -2.8233
  307THF    H12 6990   1.598   1.469   2.288  0.6936  0.1026 -1.1670
  307THF    H13 6991   1.565   1.579   2.157  2.6877 -0.8071  0.5517
  308THF     O1 6992   1.162   4.090   5.294 -0.3525 -0.0438  0.6374
  308THF     C2 6993   1.064   4.060   5.386 -0.4482 -0.7173 -0.6781
  308THF     C3 6994   1.219   4.217   5.309  0.5025  0.2854 -0.1562
  308THF     H4 6995   1.049   3.952   5.388 -1.7116 -0.5480  1.0219
  308THF     H5 6996   0.975   4.118   5.364  0.7702  1.3868 -0.3504
  308THF     H6 6997   1.314   4.242   5.263 -0.1025  3.6406  0.1507
  308THF     H7 6998   1.148   4.283   5.258 -1.1262  0.0792  1.6837
  308THF     C8 6999   1.202   4.243   5.461 -0.1667 -0.4672  0.0074
  308THF     C9 7000   1.127   4.117   5.514  0.3096  0.5675 -0.3563
  308THF    H10 7001   1.148   4.336   5.479 -1.4081 -0.8380 -1.5762
  308THF    H11 7002   1.298   4.260   5.510  0.2518 -1.5162 -0.4230
  308THF    H12 7003   1.200   4.042   5.545 -0.4949 -0.1425 -0.1779
  308THF    H13 7004   1.051   4.131   5.591 -1.9377  1.8382 -2.6525
  309THF     O1 7005   0.816   0.718   1.156 -0.3838 -0.1956 -0.0668
  309THF     C2 7006   0.916   0.635   1.215  0.4699  0.2175 -0.0390
  309THF     C3 7007   0.835   0.713   1.020  1.0587  0.2283  0.5744
  309THF     H4 7008   0.873   0.572   1.293 -1.5806  1.7159  0.1261
  309THF     H5 7009   0.994   0.702   1.251  0.9710 -0.9299  1.1057
  309THF     H6 7010   0.739   0.733   0.971 -0.9739  0.3703  4.1795
  309THF     H7 7011   0.914   0.782   0.992  0.6567  0.4922  0.0670
  309THF     C8 7012   0.855   0.565   0.999  0.6661 -0.3086 -0.6366
  309THF     C9 7013   0.947   0.538   1.105 -0.5536 -0.1187 -0.2208
  309THF    H10 7014   0.883   0.530   0.899  1.7136  0.6988 -0.7254
  309THF    H11 7015   0.767   0.502   1.009  1.3658 -1.3675 -0.9993
  309THF    H12 7016   0.966   0.433   1.126  3.5976  0.4723 -0.1276
  309THF    H13 7017   1.048   0.557   1.069 -1.1437 -0.2216 -2.0654
  310THF     O1 7018   0.281   1.968   0.676 -0.8974  0.1899 -0.1732
  310THF     C2 7019   0.307   2.093   0.734  0.3127  0.8260 -0.1883
  310THF     C3 7020   0.142   1.956   0.655  0.1174  0.0935 -0.1679
  310THF     H4 7021   0.410   2.125   0.717  0.6251 -0.4622 -0.8840
  310THF     H5 7022   0.293   2.085   0.842  0.7687  0.3335 -0.1609
  310THF     H6 7023   0.119   1.865   0.599  1.2672  0.5912 -1.5199
  310THF     H7 7024   0.094   1.940   0.751 -2.4807  1.0539 -1.2098
  310THF     C8 7025   0.111   2.088   0.594 -0.3486  0.0926 -0.1752
  310THF     C9 7026   0.209   2.181   0.654 -0.0553  0.1058 -0.6395
  310THF    H10 7027   0.006   2.115   0.610 -1.2076 -2.6394 -0.6808
  310THF    H11 7028   0.125   2.084   0.486 -1.2652  0.4490 -0.3147
  310THF    H12 7029   0.263   2.235   0.576  2.2969 -1.3065 -0.1004
  310THF    H13 7030   0.162   2.257   0.717  1.5802  0.5688  0.0980
  311THF     O1 7031   5.058   1.706   3.884 -0.3144  0.7954  0.2288
  311THF     C2 7032   5.160   1.715   3.988  0.3097  0.8630  0.7878
  311THF     C3 7033   5.005   1.576   3.881 -0.1147  0.3429  0.3168
  311THF     H4 7034   5.132   1.786   4.067 -0.6618  2.4433 -0.8948
  311THF     H5 7035   5.253   1.751   3.945 -1.1745  2.2104 -1.5490
  311THF     H6 7036   4.919   1.567   3.947  0.2678 -0.2026  0.7517
  311THF     H7 7037   4.975   1.547   3.781  1.2850  0.4027 -0.1384
  311THF     C8 7038   5.124   1.499   3.929 -0.1016 -0.4422  0.0605
  311THF     C9 7039   5.179   1.576   4.049 -0.1511 -0.3159  0.4735
  311THF    H10 7040   5.197   1.512   3.849 -2.2043  0.6342 -1.7929
  311THF    H11 7041   5.113   1.392   3.950 -0.5164 -0.5082 -0.4646
  311THF    H12 7042   5.138   1.560   4.149  1.3377  2.5153  1.6305
  311THF    H13 7043   5.286   1.558   4.058 -0.0262 -1.5478 -2.4690
  312THF     O1 7044   2.174   2.021   5.042 -0.8940 -0.5255  0.2261
  312THF     C2 7045   2.164   2.036   4.896 -0.4983  0.0200 -0.2409
  312THF     C3 7046   2.133   1.894   5.073  0.1393  0.8156  0.8991
  312THF     H4 7047   2.241   1.986   4.838 -0.0099 -1.5475  1.6511
  312THF     H5 7048   2.152   2.142   4.870 -1.7815 -0.3219 -1.1939
  312THF     H6 7049   2.215   1.827   5.044 -0.7474  0.1076 -0.0565
  312THF     H7 7050   2.102   1.878   5.176 -0.6907 -1.9097  0.3105
  312THF     C8 7051   2.005   1.877   4.986  0.8195 -0.4069  0.1408
  312THF     C9 7052   2.028   1.965   4.864  0.1692  0.6314 -0.5246
  312THF    H10 7053   1.914   1.913   5.034  2.5920  3.9782  0.6049
  312THF    H11 7054   1.989   1.776   4.947 -0.7551 -0.1513  0.0529
  312THF    H12 7055   2.039   1.904   4.774 -1.9843  0.9977 -1.0906
  312THF    H13 7056   1.946   2.032   4.842  0.9495  1.5840 -0.5713
  313THF     O1 7057   5.251   1.928   1.660 -0.6670  0.6023 -0.9636
  313THF     C2 7058   5.283   1.901   1.797 -0.4617  0.1403 -0.1393
  313THF     C3 7059   5.330   2.045   1.626 -0.4812  0.0813  0.7575
  313THF     H4 7060   5.256   1.797   1.813  1.9484 -0.8038 -1.5949
  313THF     H5 7061   5.236   1.964   1.871  0.8515  0.1469  0.7241
  313THF     H6 7062   5.354   2.044   1.520  2.1986 -0.7031  1.2902
  313THF     H7 7063   5.275   2.138   1.643  0.7149  0.7842  0.9240
  313THF     C8 7064   5.455   2.034   1.710 -0.5131  0.0148 -0.5215
  313THF     C9 7065   5.432   1.915   1.798 -0.1769  0.2850  0.4452
  313THF    H10 7066   5.482   2.120   1.771  0.4731  0.2399 -1.2361
  313THF    H11 7067   5.543   2.010   1.650 -0.7965 -1.3089 -0.4489
  313THF    H12 7068   5.477   1.820   1.766  0.2593  0.3452  0.8676
  313THF    H13 7069   5.469   1.935   1.898  0.6648  1.7111 -0.1197
  314THF     O1 7070   4.575   3.688   5.366 -0.0881 -0.2580 -0.5475
  314THF     C2 7071   4.669   3.648   5.266  0.4527 -0.7375 -0.5715
  314THF     C3 7072   4.501   3.569   5.407 -0.7896 -0.4588  0.1851
  314THF     H4 7073   4.756   3.714   5.265 -0.8172  1.0396 -0.1239
  314THF     H5 7074   4.621   3.628   5.170  0.4570  0.7161 -0.8938
  314THF     H6 7075   4.458   3.583   5.506  1.1611  0.7708  0.9205
  314THF     H7 7076   4.430   3.553   5.326 -0.8938 -0.7794  0.3403
  314THF     C8 7077   4.602   3.453   5.403  0.3919  0.5036  0.2902
  314THF     C9 7078   4.713   3.510   5.308  0.5494  0.5069  0.0375
  314THF    H10 7079   4.562   3.359   5.365 -0.4445  0.9158  0.1405
  314THF    H11 7080   4.640   3.427   5.502  0.1132 -3.0663 -0.3948
  314THF    H12 7081   4.815   3.494   5.341  0.1218 -0.3382  1.0061
  314THF    H13 7082   4.711   3.448   5.218  0.5935 -2.0800  1.7197
  315THF     O1 7083   1.223   3.135   2.344  0.2053  0.4163  0.5407
  315THF     C2 7084   1.197   3.053   2.230  0.0791 -0.2135 -0.2118
  315THF     C3 7085   1.103   3.153   2.421  0.1301 -0.7670  0.2481
  315THF     H4 7086   1.230   2.952   2.253 -1.8468 -0.7394  0.4917
  315THF     H5 7087   1.259   3.090   2.148  1.8869  0.2206  1.2901
  315THF     H6 7088   1.092   3.063   2.481 -0.4520  0.3144  1.8071
  315THF     H7 7089   1.095   3.237   2.490  0.2811 -1.9194  1.7283
  315THF     C8 7090   0.992   3.158   2.313  0.6686  0.1199 -0.3277
  315THF     C9 7091   1.044   3.077   2.201 -0.2996  0.2127  0.4508
  315THF    H10 7092   0.987   3.257   2.270 -0.6007  0.0785 -0.3036
  315THF    H11 7093   0.897   3.133   2.361  0.1911  0.7206 -0.9595
  315THF    H12 7094   0.991   2.983   2.215 -2.7371  1.8677  4.2139
  315THF    H13 7095   1.023   3.120   2.103 -0.5644 -0.5686  0.1540
  316THF     O1 7096   0.779   1.258   1.799 -0.2555 -0.3637  0.0116
  316THF     C2 7097   0.706   1.308   1.911  0.2578 -0.0571 -0.6193
  316THF     C3 7098   0.876   1.360   1.774  0.6498 -0.8777  0.3460
  316THF     H4 7099   0.659   1.225   1.964  1.3270  0.1059  0.6523
  316THF     H5 7100   0.621   1.370   1.882  0.1019 -0.6377 -1.4039
  316THF     H6 7101   0.969   1.324   1.729 -0.5850 -1.0272 -2.2421
  316THF     H7 7102   0.836   1.425   1.696 -0.1453  0.7954  2.0747
  316THF     C8 7103   0.900   1.452   1.893  0.1368  0.4265 -0.3297
  316THF     C9 7104   0.807   1.389   1.998  0.2678 -0.0445 -0.0912
  316THF    H10 7105   0.871   1.556   1.879  0.6061  0.9596  2.1428
  316THF    H11 7106   1.009   1.458   1.906  0.2907 -1.4518 -0.4205
  316THF    H12 7107   0.869   1.325   2.060  0.9577 -0.1811 -0.8985
  316THF    H13 7108   0.759   1.450   2.074 -0.8590 -1.9994  0.8445
  317THF     O1 7109   2.243   2.346   3.162  0.6936 -0.4965  0.5785
  317THF     C2 7110   2.131   2.427   3.195 -0.9782 -0.1775  0.1744
  317THF     C3 7111   2.205   2.235   3.081  0.3811  0.4544  0.5088
  317THF     H4 7112   2.131   2.528   3.153 -0.9242 -1.4830 -3.2535
  317THF     H5 7113   2.134   2.428   3.304  0.2369 -2.5740  0.2208
  317THF     H6 7114   2.219   2.257   2.976 -0.2160  1.5478  0.6431
  317THF     H7 7115   2.261   2.146   3.110  3.3331  1.7666 -0.8134
  317THF     C8 7116   2.056   2.212   3.100 -0.1228  0.1500  0.2460
  317THF     C9 7117   2.008   2.357   3.132 -0.0999  0.4717  0.0572
  317THF    H10 7118   2.029   2.152   3.187 -0.0068  0.9912  0.8680
  317THF    H11 7119   1.998   2.164   3.021 -0.7263  1.0311  0.1415
  317THF    H12 7120   1.992   2.399   3.032  0.1751 -0.6003 -0.4544
  317THF    H13 7121   1.917   2.372   3.190  0.3460 -0.6524  1.0790
  318THF     O1 7122   2.670   0.939   2.835  0.2833 -0.2103 -0.6219
  318THF     C2 7123   2.543   0.885   2.872 -0.8265  0.2853 -0.0678
  318THF     C3 7124   2.754   0.834   2.805  0.2883 -0.3293  0.5633
  318THF     H4 7125   2.488   0.890   2.779 -0.6656  1.4073 -0.1175
  318THF     H5 7126   2.493   0.966   2.927  0.8693  1.3991 -0.0617
  318THF     H6 7127   2.721   0.794   2.709 -0.1027  1.4460 -0.0792
  318THF     H7 7128   2.858   0.868   2.799 -0.1605  0.9022 -0.9362
  318THF     C8 7129   2.720   0.741   2.917 -0.1378 -0.3658  0.1939
  318THF     C9 7130   2.574   0.740   2.933  0.4242 -1.1261  0.5190
  318THF    H10 7131   2.768   0.775   3.009  1.0521  2.7789 -1.4510
  318THF    H11 7132   2.753   0.639   2.896 -0.6015 -0.2314 -1.2785
  318THF    H12 7133   2.533   0.667   2.863 -1.5885 -0.5186  1.0046
  318THF    H13 7134   2.546   0.712   3.035  0.8006 -2.4784  0.2702
  319THF     O1 7135   0.137   5.175   0.897 -0.2590  0.3219 -0.2689
  319THF     C2 7136   0.096   5.213   0.764  0.4367 -0.5496  0.2190
  319THF     C3 7137   0.162   5.031   0.897  0.0431  0.5055 -0.5840
  319THF     H4 7138   0.096   5.322   0.761 -2.0204 -0.3943  2.3816
  319THF     H5 7139  -0.008   5.186   0.750  0.5840 -1.6894  1.0852
  319THF     H6 7140   0.250   5.008   0.957  1.3287 -0.3433 -2.6736
  319THF     H7 7141   0.074   4.982   0.938  0.7177 -1.3720 -1.2661
  319THF     C8 7142   0.191   4.998   0.755 -0.2763  0.4814  0.1823
  319THF     C9 7143   0.187   5.131   0.674 -0.4131  0.3726 -0.3713
  319THF    H10 7144   0.115   4.928   0.719 -0.0695  1.0799 -1.4680
  319THF    H11 7145   0.285   4.946   0.741 -0.0349  0.7193  0.8880
  319THF    H12 7146   0.290   5.165   0.662 -0.2140 -0.7792 -2.5950
  319THF    H13 7147   0.149   5.123   0.571  0.7471 -0.2127 -0.7657
  320THF     O1 7148   4.904   4.949   4.641  0.7963 -0.3235 -0.1202
  320THF     C2 7149   4.835   4.917   4.523  0.0469  0.6984 -0.1178
  320THF     C3 7150   5.028   4.880   4.627  0.2017 -0.3849  0.3867
  320THF     H4 7151   4.869   4.983   4.443  0.8079  0.6853  0.1882
  320THF     H5 7152   4.731   4.946   4.535 -0.6242 -1.1684 -0.9940
  320THF     H6 7153   5.093   4.926   4.552  2.7194 -0.7627  2.2068
  320THF     H7 7154   5.072   4.906   4.723  2.6514  0.1398 -0.7871
  320THF     C8 7155   4.985   4.740   4.594 -0.5403 -0.1394  0.1445
  320THF     C9 7156   4.865   4.773   4.498  0.0889  0.0256 -0.5668
  320THF    H10 7157   4.955   4.681   4.680  1.0539 -0.9799  0.1668
  320THF    H11 7158   5.062   4.684   4.540 -0.4192 -0.0303  0.2050
  320THF    H12 7159   4.901   4.776   4.395 -0.2246  0.0719 -0.6744
  320THF    H13 7160   4.777   4.710   4.507  0.4476 -0.3424  0.4741
  321THF     O1 7161   4.426   0.761   4.273 -0.1851 -0.2375  0.4902
  321THF     C2 7162   4.446   0.664   4.173 -0.3772 -0.8291 -0.5725
  321THF     C3 7163   4.542   0.839   4.274  0.0088  0.1124 -0.2117
  321THF     H4 7164   4.357   0.677   4.111 -0.7852  1.7761  0.4473
  321THF     H5 7165   4.443   0.568   4.225  1.6717 -1.0116 -0.7338
  321THF     H6 7166   4.515   0.943   4.291  1.9889  0.6740 -0.2392
  321THF     H7 7167   4.619   0.816   4.348 -0.5535  1.0992  0.6932
  321THF     C8 7168   4.601   0.843   4.128 -0.6225 -0.1957 -0.9622
  321THF     C9 7169   4.571   0.702   4.096 -0.1874  0.1849  0.4742
  321THF    H10 7170   4.706   0.868   4.136 -0.6572 -0.4809  1.0898
  321THF    H11 7171   4.553   0.921   4.069 -1.0319 -0.0782 -0.4869
  321THF    H12 7172   4.571   0.691   3.987  1.5622 -2.2462  0.6561
  321THF    H13 7173   4.650   0.634   4.128  1.4004  1.7664  0.0785
  322THF     O1 7174   4.543   2.278   4.395  0.4649  0.0024 -0.0970
  322THF     C2 7175   4.635   2.388   4.422 -0.2236 -0.4370 -0.2136
  322THF     C3 7176   4.513   2.229   4.522  0.4710 -0.4214 -0.2564
  322THF     H4 7177   4.579   2.475   4.456 -0.1664 -1.3523  2.4777
  322THF     H5 7178   4.688   2.426   4.335  0.8516  2.1603  1.4651
  322THF     H6 7179   4.436   2.286   4.573  0.4942 -1.3036  0.8266
  322THF     H7 7180   4.474   2.127   4.522 -0.2763 -0.1532  0.9475
  322THF     C8 7181   4.638   2.242   4.605 -0.3498  0.2397 -0.3269
  322THF     C9 7182   4.726   2.341   4.534  0.2155  0.0225 -0.1291
  322THF    H10 7183   4.682   2.142   4.610 -1.0355 -0.0162  0.9506
  322THF    H11 7184   4.614   2.268   4.708  2.3795 -1.6217  0.9278
  322THF    H12 7185   4.758   2.418   4.604 -0.6910 -0.5880  0.9897
  322THF    H13 7186   4.816   2.289   4.502 -1.0146 -3.3010  1.3714
  323THF     O1 7187   2.221   2.632   3.527  0.5530  0.2975  0.6269
  323THF     C2 7188   2.194   2.738   3.439 -0.5946  0.0068 -0.1902
  323THF     C3 7189   2.278   2.682   3.648 -0.1183 -0.0428  0.3339
  323THF     H4 7190   2.092   2.744   3.399 -0.7884  1.2910  0.4378
  323THF     H5 7191   2.254   2.729   3.349 -1.5340  1.2408 -0.9927
  323THF     H6 7192   2.198   2.688   3.722  0.2580  1.3013  0.6577
  323THF     H7 7193   2.364   2.622   3.678  1.8603  1.5583 -1.8070
  323THF     C8 7194   2.315   2.823   3.622  0.1618 -0.1486  0.0230
  323THF     C9 7195   2.215   2.866   3.521  0.8946 -1.0658 -0.1991
  323THF    H10 7196   2.414   2.836   3.578  0.3880 -2.5010 -0.2981
  323THF    H11 7197   2.304   2.884   3.711  0.2580  1.2090 -0.8728
  323THF    H12 7198   2.118   2.881   3.570  0.8910  1.4254 -0.8388
  323THF    H13 7199   2.232   2.950   3.454  0.1826  0.2147  1.1583
  324THF     O1 7200   3.372   3.383   2.063 -0.4731 -0.0069 -0.2827
  324THF     C2 7201   3.477   3.404   2.150  0.0936 -0.0891 -0.0387
  324THF     C3 7202   3.272   3.325   2.148  0.7688 -0.1884 -0.2958
  324THF     H4 7203   3.563   3.455   2.106 -0.0182 -1.2203 -1.6732
  324THF     H5 7204   3.509   3.302   2.170 -0.0780 -0.2454 -0.5216
  324THF     H6 7205   3.175   3.317   2.099 -0.2757  1.4140  1.4167
  324THF     H7 7206   3.305   3.224   2.171 -2.0555 -1.2918 -0.7152
  324THF     C8 7207   3.269   3.427   2.261 -0.0673 -0.1527  0.2630
  324THF     C9 7208   3.410   3.473   2.271 -1.1349 -0.7244 -0.3061
  324THF    H10 7209   3.225   3.388   2.352 -1.7310  0.9860 -0.0097
  324THF    H11 7210   3.212   3.511   2.222  1.2107 -0.8297 -3.5562
  324THF    H12 7211   3.414   3.582   2.266  1.3540 -0.8111 -1.6690
  324THF    H13 7212   3.460   3.444   2.363 -0.2656  1.2395 -0.0939
  325THF     O1 7213   0.815   2.495   1.331  0.3092  0.4932  0.2261
  325THF     C2 7214   0.802   2.357   1.307  0.3722 -0.4817  0.2078
  325THF     C3 7215   0.942   2.533   1.298 -0.2636  0.2852  0.1254
  325THF     H4 7216   0.697   2.329   1.311  0.0859  0.3120 -1.0789
  325THF     H5 7217   0.831   2.299   1.394  0.9207 -1.2588 -0.4737
  325THF     H6 7218   0.939   2.642   1.290  0.5015  0.3437  0.5992
  325THF     H7 7219   1.015   2.513   1.376 -0.4885  2.3743  0.9242
  325THF     C8 7220   0.972   2.456   1.173  0.4425  0.0628  0.3531
  325THF     C9 7221   0.881   2.336   1.173 -0.4081 -0.2799  0.4104
  325THF    H10 7222   1.078   2.443   1.152  0.8884  1.6332  1.4075
  325THF    H11 7223   0.931   2.509   1.087  1.4663 -0.8926 -0.7446
  325THF    H12 7224   0.805   2.350   1.096  1.7088  2.6857 -1.3243
  325THF    H13 7225   0.936   2.242   1.171  0.2717  0.1128 -1.6521
  326THF     O1 7226   0.988   0.528   4.762 -0.1984 -0.3467  0.8442
  326THF     C2 7227   1.016   0.395   4.747 -0.6405  0.0292 -0.0493
  326THF     C3 7228   1.085   0.592   4.835 -0.4051  0.6958 -0.1459
  326THF     H4 7229   1.098   0.373   4.679 -0.9635 -1.5910  0.0616
  326THF     H5 7230   0.931   0.335   4.716 -1.3939 -0.6238  2.9153
  326THF     H6 7231   1.178   0.580   4.780  0.5644  0.9070  1.3952
  326THF     H7 7232   1.074   0.696   4.864 -1.7611  0.5897 -0.1875
  326THF     C8 7233   1.095   0.492   4.948 -0.0951  0.1082  0.5794
  326THF     C9 7234   1.068   0.363   4.889  0.3377  0.2511 -0.7481
  326THF    H10 7235   1.045   0.522   5.040  1.1692  2.1885  0.6596
  326THF    H11 7236   1.199   0.502   4.979 -0.4599  0.1238  1.8612
  326THF    H12 7237   1.144   0.284   4.895 -0.1130 -0.3771 -2.5960
  326THF    H13 7238   0.980   0.325   4.941  1.9618 -1.4710  0.8768
  327THF     O1 7239   5.479   0.477   3.742  0.3073  0.1258 -0.1811
  327THF     C2 7240   5.499   0.335   3.746  0.8528 -0.4659 -0.0822
  327THF     C3 7241   5.439   0.526   3.876  0.0811  0.4156 -0.7492
  327THF     H4 7242   5.605   0.313   3.761  1.7055  0.3425 -3.9270
  327THF     H5 7243   5.468   0.297   3.649 -1.6647 -0.0449  0.4951
  327THF     H6 7244   5.511   0.599   3.913 -0.0143 -0.6109  1.6096
  327THF     H7 7245   5.340   0.569   3.866 -1.7571 -3.4366 -1.0387
  327THF     C8 7246   5.436   0.397   3.958  0.0878 -0.6185  0.0176
  327THF     C9 7247   5.409   0.294   3.857 -0.0022  0.3379 -0.2999
  327THF    H10 7248   5.366   0.410   4.040  0.3487 -0.9375  0.2936
  327THF    H11 7249   5.534   0.377   4.001  0.3282 -0.5021 -0.4687
  327THF    H12 7250   5.434   0.194   3.891 -1.3063 -0.4581 -1.5261
  327THF    H13 7251   5.307   0.300   3.818  0.3104 -0.2008 -1.2499
  328THF     O1 7252   3.901   1.374   3.105  0.2186 -0.1654  0.9954
  328THF     C2 7253   3.952   1.326   3.222 -0.5356  0.6304 -0.5450
  328THF     C3 7254   3.770   1.313   3.093 -0.0622 -0.6383  1.1646
  328THF     H4 7255   3.917   1.389   3.304  0.1098  0.5657 -0.2185
  328THF     H5 7256   4.060   1.333   3.227 -0.4711  0.2744 -1.2677
  328THF     H6 7257   3.693   1.377   3.135 -1.0265  0.3724 -1.8783
  328THF     H7 7258   3.733   1.318   2.990  0.3891  0.7754  1.0459
  328THF     C8 7259   3.782   1.174   3.144  0.7490 -0.2254  0.6131
  328THF     C9 7260   3.906   1.175   3.226 -0.3503 -0.7148  0.9381
  328THF    H10 7261   3.793   1.098   3.066  0.9468  0.6925 -0.2844
  328THF    H11 7262   3.696   1.136   3.198  1.1829 -0.0292  1.4629
  328THF    H12 7263   3.886   1.148   3.329 -0.9846  2.2997  1.6914
  328THF    H13 7264   3.972   1.103   3.176 -1.6233 -0.8834 -0.5843
  329THF     O1 7265   5.207   3.561   1.728  0.7287 -0.9737 -0.6916
  329THF     C2 7266   5.349   3.545   1.746 -0.7042  0.2540  0.0369
  329THF     C3 7267   5.135   3.467   1.805  0.4943  0.5264 -0.3836
  329THF     H4 7268   5.376   3.644   1.784  1.7265 -1.2347  2.5374
  329THF     H5 7269   5.387   3.532   1.645  0.8314 -2.8511  0.8982
  329THF     H6 7270   5.043   3.497   1.855 -0.9360 -2.5648 -0.8930
  329THF     H7 7271   5.110   3.388   1.734  3.6195 -0.3730 -0.5945
  329THF     C8 7272   5.237   3.433   1.920 -0.8782  0.2491 -0.8843
  329THF     C9 7273   5.373   3.436   1.851  0.1180 -0.3385  0.0230
  329THF    H10 7274   5.218   3.334   1.962  0.2294  0.8752  1.2504
  329THF    H11 7275   5.231   3.501   2.005  0.9631  0.1000 -0.5967
  329THF    H12 7276   5.451   3.467   1.921 -0.2858  0.9537 -0.0648
  329THF    H13 7277   5.402   3.344   1.801  0.8122  0.4427 -1.0586
  330THF     O1 7278   0.364   0.474   3.380 -0.5751 -0.1061  0.1616
  330THF     C2 7279   0.386   0.618   3.378  0.4252  0.2042 -0.1030
  330THF     C3 7280   0.232   0.439   3.419 -0.0781 -0.4257 -0.0202
  330THF     H4 7281   0.419   0.649   3.279  1.3599  0.2229  0.2094
  330THF     H5 7282   0.462   0.643   3.452 -0.3527  2.5097 -0.0033
  330THF     H6 7283   0.195   0.353   3.363 -1.3973 -0.0176  0.1831
  330THF     H7 7284   0.233   0.421   3.527  1.1329  0.5881  0.1615
  330THF     C8 7285   0.154   0.572   3.398  0.9035  0.1060  0.3187
  330THF     C9 7286   0.252   0.685   3.418  0.0979  0.6272  0.9282
  330THF    H10 7287   0.068   0.566   3.465  0.0835  1.4543 -0.5764
  330THF    H11 7288   0.119   0.564   3.295 -0.0829  0.3630  0.6260
  330THF    H12 7289   0.235   0.769   3.351 -1.4584 -0.1799  0.2510
  330THF    H13 7290   0.248   0.724   3.520 -0.0297  3.0527  0.0510
  331THF     O1 7291   3.134   1.783   5.076 -0.3313  0.1291 -0.4103
  331THF     C2 7292   3.158   1.655   5.017 -0.4607 -0.0813 -0.5913
  331THF     C3 7293   3.051   1.855   4.991  0.5925  0.6438  0.0227
  331THF     H4 7294   3.203   1.590   5.092 -0.7984  1.8478  1.3854
  331THF     H5 7295   3.229   1.666   4.935  0.4915 -1.5367 -0.0144
  331THF     H6 7296   2.991   1.935   5.033 -1.0991 -0.5130 -0.0739
  331THF     H7 7297   3.117   1.896   4.914  1.8413 -0.7057  0.3263
  331THF     C8 7298   2.956   1.748   4.928  0.4104 -0.4440  0.1061
  331THF     C9 7299   3.019   1.619   4.960  0.4945  0.4329  0.1694
  331THF    H10 7300   2.955   1.776   4.823 -2.2372 -0.9063 -0.0576
  331THF    H11 7301   2.850   1.751   4.955 -0.0798 -1.2002 -1.5724
  331THF    H12 7302   2.958   1.558   5.027  2.5751 -0.4796  1.3228
  331THF    H13 7303   3.026   1.559   4.869 -0.5548 -0.3019  0.5572
  332THF     O1 7304   5.350   0.180   3.282  0.3044  0.9573 -0.3208
  332THF     C2 7305   5.338   0.323   3.266  0.4033  1.1200  0.3605
  332THF     C3 7306   5.465   0.132   3.210 -0.1481  0.5852 -0.1160
  332THF     H4 7307   5.393   0.366   3.350  0.3751  0.1541  0.8940
  332THF     H5 7308   5.233   0.350   3.276  0.1955  0.1577  0.9093
  332THF     H6 7309   5.551   0.149   3.275  0.7989 -1.5905 -0.7119
  332THF     H7 7310   5.465   0.027   3.182  0.5312 -0.1865  2.4597
  332THF     C8 7311   5.468   0.221   3.087  0.2141 -0.7655 -0.8084
  332THF     C9 7312   5.409   0.354   3.134 -0.2111 -0.3620  0.2999
  332THF    H10 7313   5.397   0.182   3.015 -1.5140 -0.0170  0.4216
  332THF    H11 7314   5.559   0.236   3.029  0.8873  0.5458  0.5081
  332THF    H12 7315   5.490   0.427   3.143 -1.5999  1.2814  0.1824
  332THF    H13 7316   5.339   0.394   3.060 -0.0875 -0.3675  0.1787
  333THF     O1 7317   2.276   3.171   4.225  0.1617  0.0958 -0.1689
  333THF     C2 7318   2.314   3.308   4.216 -0.0494 -0.2756  0.2294
  333THF     C3 7319   2.162   3.162   4.313  0.7550  0.6879 -0.7201
  333THF     H4 7320   2.238   3.363   4.161 -1.2430 -1.0579  1.0553
  333THF     H5 7321   2.416   3.310   4.177  0.2239  0.4628  0.9758
  333THF     H6 7322   2.073   3.143   4.252  1.3926  0.8360 -1.7323
  333THF     H7 7323   2.172   3.084   4.388  0.7761 -0.0071 -1.4241
  333THF     C8 7324   2.164   3.297   4.381 -0.2053 -0.8817 -1.3083
  333THF     C9 7325   2.303   3.351   4.366  0.2049  0.0128  1.1734
  333THF    H10 7326   2.157   3.280   4.489 -1.2673 -4.0395 -1.7691
  333THF    H11 7327   2.094   3.368   4.337  0.5272  0.0017 -1.0777
  333THF    H12 7328   2.308   3.458   4.381 -1.4161  0.4149 -0.7386
  333THF    H13 7329   2.372   3.292   4.426  0.2572 -0.4553  0.6653
  334THF     O1 7330   3.646   3.101   4.371 -0.2117 -0.3910 -0.2369
  334THF     C2 7331   3.525   3.177   4.359  0.2059 -0.2254  0.2654
  334THF     C3 7332   3.632   2.977   4.316 -0.0428  0.0929  0.7580
  334THF     H4 7333   3.549   3.259   4.292 -0.4600  0.7882  1.2369
  334THF     H5 7334   3.490   3.218   4.454 -3.0098  1.0157 -1.3295
  334THF     H6 7335   3.670   2.992   4.215 -0.2240 -0.0379  0.6702
  334THF     H7 7336   3.689   2.899   4.365 -0.3625  0.1344  1.1955
  334THF     C8 7337   3.486   2.941   4.322 -0.0534 -0.7769  0.0018
  334THF     C9 7338   3.419   3.076   4.307  0.0078 -0.6985  0.1844
  334THF    H10 7339   3.464   2.893   4.417  1.2515 -1.6972 -0.1354
  334THF    H11 7340   3.444   2.875   4.246 -2.0578 -1.8984  1.9489
  334THF    H12 7341   3.393   3.090   4.202 -1.2929 -0.7021  0.4920
  334THF    H13 7342   3.325   3.079   4.361 -0.0715  1.3501  0.0265
  335THF     O1 7343   3.976   2.695   0.168 -0.4229 -0.5161  0.5317
  335THF     C2 7344   3.987   2.707   0.312 -0.0530 -0.5445  0.4306
  335THF     C3 7345   4.108   2.721   0.124 -0.0109  0.2379 -0.1515
  335THF     H4 7346   3.907   2.667   0.374  0.9238 -2.5125  0.5266
  335THF     H5 7347   4.000   2.813   0.333 -0.6138 -1.0015  3.5684
  335THF     H6 7348   4.134   2.687   0.024  0.6694  0.5856 -0.0962
  335THF     H7 7349   4.137   2.825   0.140  0.3295 -0.1028  1.7830
  335THF     C8 7350   4.196   2.644   0.218  0.1997 -0.6033 -0.1385
  335THF     C9 7351   4.111   2.635   0.346 -0.4596 -0.2638 -0.2925
  335THF    H10 7352   4.292   2.697   0.218  0.0277 -0.1443 -2.6894
  335THF    H11 7353   4.221   2.546   0.179  0.3230 -2.1756  3.5117
  335THF    H12 7354   4.107   2.527   0.356  0.3947 -0.6933 -3.4890
  335THF    H13 7355   4.154   2.691   0.430 -0.1045  0.2836 -0.8222
  336THF     O1 7356   5.190   4.802   4.113  0.3211 -0.0213 -0.2754
  336THF     C2 7357   5.150   4.732   3.999  0.1739  0.8609  0.3415
  336THF     C3 7358   5.099   4.769   4.215  0.0705  0.2810  0.7284
  336THF     H4 7359   5.227   4.721   3.923 -1.5764  1.8985 -1.6891
  336THF     H5 7360   5.062   4.779   3.955  0.5238  1.6747  0.4894
  336THF     H6 7361   5.142   4.782   4.314  2.9648 -1.0588 -0.2652
  336THF     H7 7362   5.014   4.836   4.199  3.1702  4.4204 -0.2476
  336THF     C8 7363   5.082   4.619   4.198 -0.3852 -0.8650  0.1453
  336THF     C9 7364   5.101   4.590   4.051 -0.5599  0.2535  0.1379
  336THF    H10 7365   4.983   4.587   4.231 -0.0305  0.0890  2.3398
  336THF    H11 7366   5.151   4.562   4.260  0.4355 -1.1193 -0.9715
  336THF    H12 7367   5.179   4.515   4.039 -1.0586 -0.3416  0.5257
  336THF    H13 7368   5.008   4.559   4.003  0.0155 -0.5205 -0.4909
  337THF     O1 7369   5.066   2.294   0.035 -0.0059 -0.6945  0.6312
  337THF     C2 7370   5.002   2.166   0.028  0.4442  0.3350  0.1950
  337THF     C3 7371   5.032   2.347   0.157  0.9799 -0.3633 -0.5926
  337THF     H4 7372   5.066   2.097   0.083  2.9683  3.3955  1.4650
  337THF     H5 7373   4.987   2.142  -0.077 -1.2412  0.2156  0.4265
  337THF     H6 7374   5.092   2.304   0.237  0.3569  1.8762  1.1805
  337THF     H7 7375   5.054   2.454   0.163  2.7346 -0.6959 -0.3930
  337THF     C8 7376   4.880   2.314   0.171 -0.4613  0.1938  0.1255
  337THF     C9 7377   4.866   2.186   0.090  0.1849 -0.1171  0.7501
  337THF    H10 7378   4.821   2.397   0.132  0.6991  0.9471 -0.0986
  337THF    H11 7379   4.850   2.302   0.275  1.3021 -0.3908  0.5996
  337THF    H12 7380   4.829   2.103   0.151 -0.1642 -0.1404  0.5115
  337THF    H13 7381   4.795   2.219   0.013  0.1646  1.0016  1.2220
  338THF     O1 7382   3.047   1.801   0.700  0.0883 -0.3300  0.3414
  338THF     C2 7383   2.958   1.818   0.595 -0.1314  0.8586  0.1475
  338THF     C3 7384   3.120   1.684   0.702  0.1549  0.3426 -0.1364
  338THF     H4 7385   3.001   1.869   0.508 -0.0463 -0.6131 -0.7311
  338THF     H5 7386   2.868   1.875   0.615  0.0688  1.2926 -0.1828
  338THF     H6 7387   3.223   1.704   0.671 -0.2969  1.6111 -0.8799
  338THF     H7 7388   3.127   1.634   0.799 -2.5560 -0.0589 -0.0743
  338THF     C8 7389   3.057   1.604   0.587 -0.4722 -0.1280  0.2613
  338THF     C9 7390   2.927   1.676   0.547  0.2767 -0.1242  0.0439
  338THF    H10 7391   3.037   1.502   0.618 -1.2989  0.7564  2.8619
  338THF    H11 7392   3.126   1.596   0.503  1.5327  1.2495  1.6733
  338THF    H12 7393   2.886   1.654   0.448  0.2280  0.2636 -0.0256
  338THF    H13 7394   2.848   1.639   0.612 -0.5847  0.9551 -0.3673
  339THF     O1 7395   0.594   1.631   3.177  0.6685  0.1327 -0.4396
  339THF     C2 7396   0.540   1.503   3.194 -0.4818  0.0845 -0.1587
  339THF     C3 7397   0.513   1.695   3.076  0.0200 -0.2248  0.2123
  339THF     H4 7398   0.555   1.480   3.300  2.4589 -1.7632 -0.8465
  339THF     H5 7399   0.591   1.421   3.142 -0.2157 -0.3458  0.7462
  339THF     H6 7400   0.531   1.802   3.070  1.2882 -0.4538 -0.6103
  339THF     H7 7401   0.529   1.656   2.975 -1.6662  1.7323 -0.8950
  339THF     C8 7402   0.369   1.653   3.111 -0.4713 -0.5856 -0.2053
  339THF     C9 7403   0.394   1.509   3.151 -0.4543  0.5194  0.0670
  339THF    H10 7404   0.289   1.664   3.037 -0.7328 -1.2699 -0.0354
  339THF    H11 7405   0.336   1.721   3.189 -0.0551  0.1655 -0.6813
  339THF    H12 7406   0.328   1.475   3.231 -0.3927  1.9081  0.7408
  339THF    H13 7407   0.376   1.449   3.062 -1.1794  0.1965  0.4200
  340THF     O1 7408   1.387   4.160   4.369  0.2113 -0.3761 -0.2585
  340THF     C2 7409   1.445   4.037   4.322 -0.2384  0.4943 -0.7457
  340THF     C3 7410   1.297   4.212   4.264 -0.0758 -1.0779  0.1927
  340THF     H4 7411   1.446   3.974   4.411  1.2264  1.7977  0.2192
  340THF     H5 7412   1.550   4.052   4.294  0.3865  0.1748  1.2312
  340THF     H6 7413   1.200   4.205   4.312  0.0906  1.1253  0.9595
  340THF     H7 7414   1.312   4.319   4.247 -0.8935 -0.3402  3.4298
  340THF     C8 7415   1.309   4.117   4.147  0.7191  0.7944  0.3046
  340THF     C9 7416   1.340   3.984   4.214 -0.2778  0.1023 -1.2149
  340THF    H10 7417   1.389   4.149   4.080 -0.4955 -1.6872 -2.5514
  340THF    H11 7418   1.224   4.119   4.079  1.7613 -1.2392 -1.1773
  340THF    H12 7419   1.253   3.963   4.276  0.0956  1.8742 -0.0242
  340THF    H13 7420   1.372   3.899   4.154 -0.5761 -0.8769 -0.0413
  341THF     O1 7421   5.354   2.998   3.652 -0.1883 -0.2594  0.4955
  341THF     C2 7422   5.418   3.074   3.548 -0.4863 -0.1370  0.2747
  341THF     C3 7423   5.430   2.881   3.674 -0.6727 -0.1548 -0.1064
  341THF     H4 7424   5.473   3.163   3.579  1.9380 -0.8849 -1.4991
  341THF     H5 7425   5.335   3.110   3.488 -0.0233 -0.2030 -0.4213
  341THF     H6 7426   5.515   2.909   3.737  0.9951 -0.4323 -2.1114
  341THF     H7 7427   5.367   2.807   3.722 -1.6599  0.7420  0.0052
  341THF     C8 7428   5.493   2.832   3.539  0.7316 -0.0427 -0.5781
  341THF     C9 7429   5.500   2.968   3.468 -0.0933 -0.6271 -0.1515
  341THF    H10 7430   5.418   2.773   3.485  0.6811 -1.5416  1.0649
  341THF    H11 7431   5.586   2.779   3.552 -0.3831 -2.0610 -0.4517
  341THF    H12 7432   5.604   2.998   3.473 -0.3396  0.0586  2.1351
  341THF    H13 7433   5.476   2.956   3.363 -3.0224  0.2099  0.3127
  342THF     O1 7434   2.200   1.432   0.567 -0.0958 -0.5052  0.0103
  342THF     C2 7435   2.206   1.292   0.566 -0.6141  0.3833  0.8649
  342THF     C3 7436   2.327   1.481   0.548 -0.2348 -0.1143 -0.2900
  342THF     H4 7437   2.191   1.251   0.466 -0.0454  0.9132  0.5530
  342THF     H5 7438   2.129   1.249   0.630  1.2085 -0.4768  2.5979
  342THF     H6 7439   2.355   1.469   0.443  1.8687 -0.1318  0.2317
  342THF     H7 7440   2.344   1.583   0.581  1.1968 -1.2949  2.9961
  342THF     C8 7441   2.420   1.393   0.626  0.0012 -0.5218  0.4867
  342THF     C9 7442   2.342   1.262   0.633  0.0880  0.2879  0.0114
  342THF    H10 7443   2.430   1.444   0.721  0.6054  2.4411 -1.0652
  342THF    H11 7444   2.519   1.391   0.579  0.7985  1.0157  2.0033
  342THF    H12 7445   2.391   1.174   0.590 -1.2151 -0.7498  0.5494
  342THF    H13 7446   2.322   1.235   0.737 -0.9293 -0.3723 -0.3305
  343THF     O1 7447   5.476   5.209   4.424 -0.0173  0.3616  0.6978
  343THF     C2 7448   5.409   5.201   4.548  0.4153 -0.7363 -0.7507
  343THF     C3 7449   5.399   5.136   4.330 -0.3717  0.4084 -0.0151
  343THF     H4 7450   5.324   5.268   4.563  0.7924 -0.3944 -0.0911
  343THF     H5 7451   5.476   5.223   4.631 -2.5437  1.0261  1.3624
  343THF     H6 7452   5.306   5.186   4.304 -0.5009 -0.0034 -0.3421
  343THF     H7 7453   5.456   5.117   4.239  0.9769  0.3018  0.8195
  343THF     C8 7454   5.353   5.006   4.397 -0.3665 -0.1766  0.0458
  343THF     C9 7455   5.359   5.051   4.543 -0.0626 -0.1377 -0.1400
  343THF    H10 7456   5.405   4.920   4.354 -0.3137 -0.1324  0.0217
  343THF    H11 7457   5.248   4.996   4.372 -0.4828  0.0595  0.4301
  343THF    H12 7458   5.265   5.042   4.596  1.2620 -0.3119  2.3485
  343THF    H13 7459   5.425   4.985   4.599  0.4394 -0.7712 -1.4347
  344THF     O1 7460   1.525   3.346   0.666 -0.1064  0.0580  0.2255
  344THF     C2 7461   1.481   3.478   0.700  0.3755 -0.6084 -0.3163
  344THF     C3 7462   1.635   3.324   0.749 -0.3073  0.4577 -0.4747
  344THF     H4 7463   1.374   3.499   0.702  0.9661  3.2099 -0.7329
  344THF     H5 7464   1.527   3.540   0.623 -0.7954  0.7022 -0.0013
  344THF     H6 7465   1.636   3.221   0.782  1.2001  1.1864  2.0265
  344THF     H7 7466   1.713   3.334   0.673  1.7275  2.4376  1.7085
  344THF     C8 7467   1.655   3.420   0.857  0.5770  0.2646  0.2149
  344THF     C9 7468   1.521   3.496   0.845 -0.3650 -0.5179  0.9152
  344THF    H10 7469   1.738   3.488   0.840 -1.0140  2.1733 -0.3701
  344THF    H11 7470   1.677   3.371   0.952  1.1527  2.0122  1.0342
  344THF    H12 7471   1.444   3.462   0.913 -0.2558 -1.1987  0.7034
  344THF    H13 7472   1.529   3.601   0.873 -0.8503 -0.1676 -0.1746
  345THF     O1 7473   4.956   5.079   4.146 -0.4975 -0.1535 -0.3580
  345THF     C2 7474   5.080   5.142   4.141 -0.0612  0.2463  0.1164
  345THF     C3 7475   4.856   5.172   4.131 -0.5045  0.0227  0.1489
  345THF     H4 7476   5.157   5.079   4.097  0.1313 -0.1490  1.0099
  345THF     H5 7477   5.104   5.159   4.246  0.2065  1.9919 -0.1899
  345THF     H6 7478   4.768   5.115   4.102 -2.0848  1.7547  1.3010
  345THF     H7 7479   4.835   5.236   4.217 -1.0490  1.5446 -1.0792
  345THF     C8 7480   4.910   5.265   4.018  0.0597 -0.0032 -0.0251
  345THF     C9 7481   5.058   5.277   4.060  0.1696 -0.3003  0.3993
  345THF    H10 7482   4.864   5.364   4.010 -1.6845 -0.7680 -0.0366
  345THF    H11 7483   4.894   5.211   3.925  1.8499  0.3039 -0.5407
  345THF    H12 7484   5.119   5.263   3.971 -0.6348 -1.1987 -0.0384
  345THF    H13 7485   5.084   5.366   4.118 -0.7703 -0.7249  1.4999
  346THF     O1 7486   1.935   2.138   3.593  0.2423 -0.1305  0.0361
  346THF     C2 7487   1.855   2.183   3.700  0.0917 -0.1073  0.3983
  346THF     C3 7488   1.878   2.183   3.469 -0.4249  0.2840 -0.4753
  346THF     H4 7489   1.908   2.167   3.794 -0.3677 -1.6797  0.4331
  346THF     H5 7490   1.764   2.123   3.706  0.4481 -0.8719 -1.1653
  346THF     H6 7491   1.960   2.220   3.408  0.5125  0.5116  0.8591
  346THF     H7 7492   1.814   2.115   3.413  1.3646 -0.3364 -1.8195
  346THF     C8 7493   1.777   2.294   3.513  0.0201 -0.4388  0.0299
  346THF     C9 7494   1.807   2.318   3.660  0.1398 -0.4024 -0.3279
  346THF    H10 7495   1.675   2.268   3.485 -0.7842  0.3521  2.0394
  346THF    H11 7496   1.799   2.384   3.456  0.7151 -0.8557 -0.3700
  346THF    H12 7497   1.880   2.400   3.662 -1.2208  0.8772 -0.8015
  346THF    H13 7498   1.728   2.349   3.728  1.0396  1.4853 -0.0448
  347THF     O1 7499   5.028   5.383   2.582  0.4057  0.2042  1.3496
  347THF     C2 7500   5.082   5.492   2.652  0.0914 -0.0494  0.4479
  347THF     C3 7501   5.097   5.265   2.622 -0.2659 -0.0862 -0.0042
  347THF     H4 7502   5.008   5.571   2.661 -0.2425 -0.1629 -1.0815
  347THF     H5 7503   5.172   5.523   2.597 -0.2616 -1.0010 -0.7028
  347THF     H6 7504   5.041   5.173   2.638  0.5325 -0.2452  2.3678
  347THF     H7 7505   5.168   5.246   2.541 -2.2520 -1.1199 -1.5842
  347THF     C8 7506   5.162   5.301   2.756  0.7032 -0.1588 -0.2563
  347THF     C9 7507   5.127   5.441   2.780 -0.4119 -0.1571 -0.3257
  347THF    H10 7508   5.270   5.295   2.751  0.6599 -2.2047  0.4208
  347THF    H11 7509   5.123   5.233   2.832 -0.2618  1.5343  0.8194
  347THF    H12 7510   5.048   5.445   2.855  0.1940 -0.7711  0.3636
  347THF    H13 7511   5.204   5.500   2.829  0.5371 -1.1931 -0.5220
  348THF     O1 7512   1.684   4.924   5.299 -0.0839 -0.2858 -0.0725
  348THF     C2 7513   1.647   5.059   5.333  0.7503  0.2143 -0.0685
  348THF     C3 7514   1.821   4.909   5.324  0.7958  0.3616 -0.7413
  348THF     H4 7515   1.659   5.080   5.439  1.0925 -1.2476  0.2051
  348THF     H5 7516   1.546   5.090   5.305 -0.5438 -2.3075  1.5148
  348THF     H6 7517   1.834   4.915   5.432  0.9275  1.4636 -0.8024
  348THF     H7 7518   1.864   4.815   5.290  0.4136 -0.0448 -0.1017
  348THF     C8 7519   1.872   5.036   5.259 -0.5693 -0.6491  0.1441
  348THF     C9 7520   1.759   5.136   5.255  0.7589 -0.4051 -0.4253
  348THF    H10 7521   1.909   5.029   5.157 -1.7052  4.0131 -0.8263
  348THF    H11 7522   1.957   5.078   5.314 -0.9933  0.3828  0.0330
  348THF    H12 7523   1.791   5.231   5.298  0.0778  0.9396 -2.7472
  348THF    H13 7524   1.729   5.168   5.156 -0.0024  1.9921  0.5113
  349THF     O1 7525   1.636   0.287   4.794 -0.0614  0.5103 -0.7977
  349THF     C2 7526   1.524   0.323   4.707 -0.2333 -0.3320  0.5651
  349THF     C3 7527   1.576   0.227   4.908 -0.4090  0.2355  0.1107
  349THF     H4 7528   1.490   0.233   4.655 -1.4854 -0.2373  1.2014
  349THF     H5 7529   1.555   0.397   4.633 -4.4352 -0.9094 -2.1026
  349THF     H6 7530   1.536   0.128   4.887 -2.3317  0.6569  1.5130
  349THF     H7 7531   1.655   0.230   4.983  0.3399  0.9947 -0.6871
  349THF     C8 7532   1.462   0.324   4.938  0.5338 -0.7560  0.1568
  349THF     C9 7533   1.417   0.372   4.802 -0.1580  0.1916 -0.0894
  349THF    H10 7534   1.502   0.401   5.003 -2.3470 -1.4347  3.0324
  349THF    H11 7535   1.378   0.289   4.999 -1.0876  0.9488 -1.0036
  349THF    H12 7536   1.324   0.327   4.765 -1.5890  0.6565  2.6684
  349THF    H13 7537   1.414   0.480   4.794 -0.0349  0.1349 -1.0600
  350THF     O1 7538   2.504   2.954   5.025  0.2081  0.0220  0.2533
  350THF     C2 7539   2.506   3.063   5.117  0.6912  0.4452  0.1897
  350THF     C3 7540   2.565   2.841   5.077 -0.4634  0.4443  0.2916
  350THF     H4 7541   2.432   3.059   5.197 -0.0486  1.8853 -0.3829
  350THF     H5 7542   2.502   3.159   5.065 -2.6555  1.8858  2.7143
  350THF     H6 7543   2.488   2.774   5.116  0.7792  0.6731  3.3694
  350THF     H7 7544   2.622   2.789   5.000 -1.5114 -0.3908  0.0622
  350THF     C8 7545   2.657   2.903   5.183  0.4340 -0.4113 -0.5184
  350THF     C9 7546   2.648   3.053   5.166 -0.6248  0.0876  0.5407
  350THF    H10 7547   2.763   2.879   5.178  0.8239  0.4905  1.8029
  350THF    H11 7548   2.634   2.876   5.286  1.5378 -1.7514 -0.5914
  350THF    H12 7549   2.667   3.116   5.253  2.6945 -0.5058  0.3954
  350THF    H13 7550   2.708   3.080   5.079 -1.1119 -1.2734 -0.2454
  351THF     O1 7551   1.138   0.008   4.673 -0.0116 -0.0888  0.3101
  351THF     C2 7552   1.235  -0.048   4.758 -0.1886 -0.0748 -0.4943
  351THF     C3 7553   1.114  -0.083   4.566  0.0381 -0.8889  0.2591
  351THF     H4 7554   1.184  -0.102   4.838 -0.9622  0.2177 -0.7819
  351THF     H5 7555   1.286   0.040   4.798  1.6665 -0.6236 -1.5251
  351THF     H6 7556   1.017  -0.134   4.566  0.3203 -1.4298  0.5567
  351THF     H7 7557   1.137  -0.040   4.468 -0.7203 -1.5768 -0.2468
  351THF     C8 7558   1.202  -0.204   4.595  0.9576  0.1632  0.1132
  351THF     C9 7559   1.309  -0.147   4.678 -0.0362  0.1877  0.3531
  351THF    H10 7560   1.232  -0.258   4.506 -0.5424 -0.3545 -0.1135
  351THF    H11 7561   1.154  -0.285   4.650 -0.7721  0.1700 -1.2992
  351THF    H12 7562   1.372  -0.217   4.733  0.1001 -0.6284 -0.7955
  351THF    H13 7563   1.382  -0.104   4.609  2.0960 -2.1848  0.9876
  352THF     O1 7564   2.660   2.345   4.299 -0.3029  0.3035 -0.8052
  352THF     C2 7565   2.756   2.351   4.190 -0.0216  0.3960  0.4233
  352THF     C3 7566   2.644   2.481   4.348 -0.8386  0.6252  0.0606
  352THF     H4 7567   2.714   2.391   4.098  1.8756 -0.9126 -1.0942
  352THF     H5 7568   2.807   2.260   4.161  0.5767  0.0361  2.4278
  352THF     H6 7569   2.581   2.535   4.278 -1.8345  0.0032  0.4509
  352THF     H7 7570   2.606   2.483   4.450 -0.3155  2.1861  0.2517
  352THF     C8 7571   2.792   2.523   4.349  0.5920 -0.0036  0.0499
  352THF     C9 7572   2.862   2.445   4.236  0.1418  0.3332 -0.2820
  352THF    H10 7573   2.839   2.492   4.442  0.0573  2.5881  1.2787
  352THF    H11 7574   2.808   2.631   4.352 -0.3553  0.1430  2.2175
  352THF    H12 7575   2.895   2.512   4.157  2.6814 -0.0513  0.3562
  352THF    H13 7576   2.950   2.385   4.261 -0.6320 -0.6136  0.2542
  353THF     O1 7577   4.709   4.378   3.023  0.1827 -0.1297 -0.1900
  353THF     C2 7578   4.791   4.484   3.046 -0.3458 -0.3687  0.2538
  353THF     C3 7579   4.765   4.259   3.073 -0.4142  0.0745  0.0348
  353THF     H4 7580   4.734   4.577   3.049 -0.7696 -0.6228  0.1535
  353THF     H5 7581   4.860   4.503   2.963  1.4885 -2.5180  1.1996
  353THF     H6 7582   4.684   4.188   3.090 -0.5331 -0.3171 -1.8876
  353THF     H7 7583   4.841   4.222   3.005  1.7377  0.8120  1.9211
  353THF     C8 7584   4.828   4.302   3.202  0.1453  0.2347 -0.1080
  353THF     C9 7585   4.874   4.440   3.166 -0.3853  0.0915 -0.0762
  353THF    H10 7586   4.916   4.244   3.228  0.5565  0.1782 -1.5829
  353THF    H11 7587   4.746   4.302   3.274  1.3580 -0.4093  1.3278
  353THF    H12 7588   4.871   4.504   3.254  0.5010 -0.8512  0.6559
  353THF    H13 7589   4.978   4.455   3.137 -0.3819  0.4177  0.0990
  354THF     O1 7590   5.406   3.214   5.329 -0.3560 -0.4576 -0.2671
  354THF     C2 7591   5.450   3.235   5.197  0.8402 -0.3415  0.4230
  354THF     C3 7592   5.489   3.125   5.391 -0.0906  0.7960 -0.2515
  354THF     H4 7593   5.466   3.343   5.188  1.9819 -0.4215  1.2021
  354THF     H5 7594   5.373   3.208   5.126  2.4531  1.5031 -2.2137
  354THF     H6 7595   5.502   3.141   5.497 -0.1789 -2.7631  0.4212
  354THF     H7 7596   5.450   3.023   5.381  0.3220  0.2005  3.0394
  354THF     C8 7597   5.619   3.132   5.311  0.3530 -0.0502 -0.1426
  354THF     C9 7598   5.573   3.152   5.175  0.3564  0.4829 -0.0256
  354THF    H10 7599   5.675   3.041   5.333  0.7609  0.4934  1.1709
  354THF    H11 7600   5.683   3.216   5.339 -1.3096  1.2951 -0.2216
  354THF    H12 7601   5.657   3.188   5.115  1.9826 -2.6839  0.1622
  354THF    H13 7602   5.544   3.051   5.147 -2.6663  0.8146  1.5108
  355THF     O1 7603   3.958   4.795   5.379 -0.3431 -0.1956 -0.2458
  355THF     C2 7604   4.035   4.794   5.260  0.2186  0.7416  0.2271
  355THF     C3 7605   3.958   4.665   5.444 -0.2451 -1.1678  0.3824
  355THF     H4 7606   4.097   4.882   5.245  3.9340 -1.6668  0.1668
  355THF     H5 7607   3.970   4.791   5.173  0.8146 -2.7284 -0.2397
  355THF     H6 7608   3.927   4.675   5.547  0.4868 -1.4743  0.6416
  355THF     H7 7609   3.892   4.602   5.384 -0.9585 -0.7583  0.7299
  355THF     C8 7610   4.101   4.622   5.417  0.4929 -0.3285  0.8815
  355THF     C9 7611   4.114   4.664   5.271 -0.4472 -0.1096 -0.2818
  355THF    H10 7612   4.103   4.514   5.431 -0.5249 -0.5671 -0.6686
  355THF    H11 7613   4.171   4.681   5.476  0.2347  0.2597  0.6003
  355THF    H12 7614   4.219   4.654   5.244 -0.2872  0.4886  0.1170
  355THF    H13 7615   4.064   4.582   5.219 -1.8305  0.4138  0.1764
  356THF     O1 7616   3.482   1.798   4.793  0.0043  0.0542 -0.6674
  356THF     C2 7617   3.507   1.940   4.823  0.1651 -0.1794  0.5109
  356THF     C3 7618   3.545   1.725   4.898 -0.0127  0.1960  0.5787
  356THF     H4 7619   3.443   2.002   4.760  2.2317  1.0066 -0.5281
  356THF     H5 7620   3.610   1.966   4.797  0.1636  0.3357  1.0068
  356THF     H6 7621   3.477   1.640   4.900  1.4790 -1.0118  0.8464
  356THF     H7 7622   3.641   1.691   4.861 -0.5207 -0.9995  0.3028
  356THF     C8 7623   3.547   1.818   5.015 -0.3019  0.2741  0.1974
  356THF     C9 7624   3.482   1.941   4.972  0.3480 -0.1820  0.4037
  356THF    H10 7625   3.647   1.838   5.053 -0.7538  0.7620  1.1497
  356THF    H11 7626   3.487   1.775   5.095  0.1865 -0.1053  0.3611
  356THF    H12 7627   3.374   1.936   4.984  0.2748  1.3166  0.5952
  356THF    H13 7628   3.522   2.032   5.017  2.2568 -0.0009 -1.4643
  357THF     O1 7629   5.135   3.969   2.840  0.1501 -0.3731 -0.0098
  357THF     C2 7630   5.074   4.089   2.794 -0.7371 -0.6097 -0.2231
  357THF     C3 7631   5.276   3.973   2.808 -0.3218 -0.0110 -0.6644
  357THF     H4 7632   4.977   4.104   2.842 -0.4734 -0.8669  0.4169
  357THF     H5 7633   5.046   4.084   2.689  0.3962  2.7832 -0.7958
  357THF     H6 7634   5.333   3.903   2.869 -2.2567  0.2763  1.6250
  357THF     H7 7635   5.293   3.944   2.704  1.0029  0.1450 -0.5046
  357THF     C8 7636   5.304   4.121   2.855 -0.2618 -0.4883  1.4976
  357THF     C9 7637   5.180   4.197   2.820  0.3349  0.0896  0.4425
  357THF    H10 7638   5.403   4.151   2.822 -0.2558 -0.0577  1.9044
  357THF    H11 7639   5.326   4.117   2.961  4.3065  0.6440  0.8270
  357THF    H12 7640   5.162   4.257   2.909  2.0136 -0.4941  1.2193
  357THF    H13 7641   5.196   4.261   2.733  1.8195 -0.0808  0.5680
  358THF     O1 7642   0.665   4.139   0.408  0.1759  0.1473 -1.0909
  358THF     C2 7643   0.522   4.123   0.404  0.2394 -0.2553  0.1009
  358THF     C3 7644   0.682   4.256   0.493 -0.0222 -0.6915  0.3602
  358THF     H4 7645   0.494   4.062   0.490  1.9150 -0.0608  0.8187
  358THF     H5 7646   0.484   4.069   0.317 -1.2373 -1.3236  1.3624
  358THF     H6 7647   0.646   4.235   0.594 -1.3162 -1.5556 -0.2480
  358THF     H7 7648   0.784   4.293   0.496 -0.7505  1.3487  2.3293
  358THF     C8 7649   0.586   4.354   0.427  0.0641  0.2464 -0.2054
  358THF     C9 7650   0.464   4.266   0.405 -0.2713 -0.4575  0.0179
  358THF    H10 7651   0.621   4.377   0.326 -0.3522  0.4575 -0.3081
  358THF    H11 7652   0.568   4.447   0.483  2.1101  0.3359  0.3636
  358THF    H12 7653   0.393   4.288   0.484 -1.9339  0.4329 -1.6326
  358THF    H13 7654   0.419   4.298   0.311  1.1952 -0.0126 -0.5643
  359THF     O1 7655   5.138   3.682   3.665  0.0729  0.0054  0.0632
  359THF     C2 7656   5.208   3.760   3.763 -0.0139 -0.5211 -0.0096
  359THF     C3 7657   5.031   3.764   3.633  0.1375 -0.0378 -0.5606
  359THF     H4 7658   5.266   3.834   3.707  0.7498  0.3904  1.9040
  359THF     H5 7659   5.283   3.708   3.823 -0.7048 -0.7899  0.6315
  359THF     H6 7660   5.074   3.845   3.574  1.6238 -0.4935 -0.1370
  359THF     H7 7661   4.960   3.722   3.562  1.4336 -0.4489 -1.6665
  359THF     C8 7662   4.979   3.822   3.765 -0.0595 -0.5816 -0.2555
  359THF     C9 7663   5.106   3.829   3.851 -0.4279  0.2925  0.4014
  359THF    H10 7664   4.901   3.761   3.810 -1.2802  2.3012  1.8999
  359THF    H11 7665   4.928   3.917   3.745 -0.3205 -1.1515 -2.6200
  359THF    H12 7666   5.128   3.933   3.876  1.8993 -0.6799  2.9585
  359THF    H13 7667   5.086   3.774   3.943  1.5626 -0.9662  0.1470
  360THF     O1 7668   0.349   3.583   0.236 -0.4019 -0.1986 -0.3910
  360THF     C2 7669   0.417   3.579   0.107  0.5987 -0.0913  0.1992
  360THF     C3 7670   0.210   3.592   0.210  0.6598  0.6309  0.7681
  360THF     H4 7671   0.515   3.532   0.118  0.1426 -1.4555 -1.1771
  360THF     H5 7672   0.421   3.680   0.065 -1.7889 -1.5424 -4.1634
  360THF     H6 7673   0.144   3.572   0.295 -2.0797 -0.0809 -1.4078
  360THF     H7 7674   0.190   3.692   0.173  0.5164  0.0208 -0.8599
  360THF     C8 7675   0.191   3.506   0.086  0.1279  0.5542  0.0411
  360THF     C9 7676   0.330   3.490   0.021  0.3632  0.1998 -0.0941
  360THF    H10 7677   0.124   3.570   0.029  1.0386  0.8985 -0.6677
  360THF    H11 7678   0.143   3.410   0.106  1.1271 -0.2039 -1.0106
  360THF    H12 7679   0.367   3.391   0.046 -2.5425 -0.6247  1.4173
  360THF    H13 7680   0.342   3.520  -0.083  2.5036  0.5027  0.1989
  361THF     O1 7681   0.325   5.022   4.013 -0.2597  0.1291  0.6108
  361THF     C2 7682   0.185   5.050   3.988  0.1979  0.1134  0.3499
  361THF     C3 7683   0.339   4.884   4.054  0.5184  0.0311 -0.3069
  361THF     H4 7684   0.171   5.116   3.903 -1.0519 -0.4971  0.0543
  361THF     H5 7685   0.134   5.089   4.076  1.1385  1.1104  0.4626
  361THF     H6 7686   0.437   4.842   4.032  2.1138  3.5303 -0.6767
  361THF     H7 7687   0.311   4.872   4.158  2.2375  1.0058  0.3108
  361THF     C8 7688   0.233   4.814   3.969 -0.0630  0.7110  0.7523
  361THF     C9 7689   0.121   4.910   3.966  0.0433 -0.9264  0.2586
  361THF    H10 7690   0.207   4.713   3.998  0.5876  0.7333  1.4460
  361THF    H11 7691   0.284   4.806   3.873  0.4024 -0.1532  1.0682
  361THF    H12 7692   0.079   4.900   3.866  2.1167  2.4119 -1.1234
  361THF    H13 7693   0.038   4.906   4.037  1.0013 -1.9216  1.3549
  362THF     O1 7694   1.762   4.262   2.398  0.1804 -0.3038 -0.5694
  362THF     C2 7695   1.848   4.344   2.325 -0.3059  0.0379 -0.8150
  362THF     C3 7696   1.831   4.202   2.511 -0.0758  0.5661  0.1032
  362THF     H4 7697   1.791   4.393   2.246  1.4205 -0.7275 -2.6049
  362THF     H5 7698   1.931   4.284   2.289 -0.5001 -0.2141 -0.8454
  362THF     H6 7699   1.766   4.148   2.579  2.9772 -2.3939  0.9279
  362THF     H7 7700   1.902   4.130   2.470 -1.7168 -0.4688 -1.0604
  362THF     C8 7701   1.908   4.327   2.553  0.4396 -0.1783 -0.0390
  362THF     C9 7702   1.893   4.436   2.442 -0.4413  0.5196  0.0505
  362THF    H10 7703   2.011   4.294   2.567  0.0418 -1.1430  0.7935
  362THF    H11 7704   1.885   4.357   2.655  1.5976 -1.4716  0.6485
  362THF    H12 7705   1.819   4.510   2.473 -0.3141  0.8648 -0.4499
  362THF    H13 7706   1.982   4.493   2.416 -0.9728  1.1164 -0.5263
  363THF     O1 7707   3.253   2.283   5.137 -0.0904 -0.4894 -0.4007
  363THF     C2 7708   3.205   2.221   5.019  0.6477 -0.4378  0.4094
  363THF     C3 7709   3.272   2.419   5.112 -0.6699  0.2266 -0.1318
  363THF     H4 7710   3.096   2.229   5.011  0.5706  1.0839  2.1591
  363THF     H5 7711   3.224   2.114   5.011 -0.4631 -0.6466  0.4101
  363THF     H6 7712   3.182   2.476   5.134 -0.7828 -0.0063  0.0084
  363THF     H7 7713   3.344   2.456   5.185 -1.8886  1.1588  0.6264
  363THF     C8 7714   3.322   2.424   4.967  0.0918  0.4154 -0.0695
  363THF     C9 7715   3.267   2.297   4.901  0.3555 -0.2059 -0.1751
  363THF    H10 7716   3.431   2.425   4.968  0.1310 -1.1267 -0.0284
  363THF    H11 7717   3.291   2.517   4.919  2.5449 -0.5137 -3.8753
  363THF    H12 7718   3.196   2.315   4.821  0.4511  2.6801  0.2822
  363THF    H13 7719   3.355   2.246   4.863 -0.4572 -1.7608 -0.0532
  364THF     O1 7720   1.742   3.100   0.025 -0.1660 -0.0695  0.0574
  364THF     C2 7721   1.722   2.969   0.096  0.0674 -0.4930  0.0539
  364THF     C3 7722   1.798   3.197   0.108  0.0143 -0.8808  0.0208
  364THF     H4 7723   1.755   2.880   0.043 -0.7005 -1.0809  0.5482
  364THF     H5 7724   1.616   2.957   0.121 -0.2501  2.3169  0.4099
  364THF     H6 7725   1.905   3.202   0.085  0.1396  1.8808  0.8286
  364THF     H7 7726   1.755   3.296   0.094  0.4322 -0.6339  0.4602
  364THF     C8 7727   1.796   3.139   0.245  0.1713 -0.4246 -0.1566
  364THF     C9 7728   1.804   2.995   0.221  0.1502  0.3176 -0.0603
  364THF    H10 7729   1.701   3.154   0.295  0.0874  0.1434 -0.4834
  364THF    H11 7730   1.885   3.174   0.298 -0.2627 -0.0750  0.3603
  364THF    H12 7731   1.907   2.967   0.198  0.3549  1.2595 -0.3232
  364THF    H13 7732   1.784   2.934   0.310 -0.1703  1.2605  0.5257
  365THF     O1 7733   3.954   5.411   2.221 -0.4621  0.0862  0.0029
  365THF     C2 7734   4.025   5.471   2.327 -0.5171  0.5992  0.7537
  365THF     C3 7735   4.052   5.338   2.139 -0.5246  0.8374  1.0465
  365THF     H4 7736   3.970   5.464   2.420 -1.9184  1.8467  0.0480
  365THF     H5 7737   4.030   5.578   2.310  1.3806  0.1628 -2.3345
  365THF     H6 7738   4.011   5.247   2.094 -1.2901  1.2136  0.9730
  365THF     H7 7739   4.101   5.401   2.066 -0.7958 -1.4233 -1.2262
  365THF     C8 7740   4.154   5.293   2.244  0.4878  0.3578 -0.4763
  365THF     C9 7741   4.167   5.412   2.338  1.0134 -0.1131 -0.0755
  365THF    H10 7742   4.250   5.264   2.203  0.9399  0.1745  0.6779
  365THF    H11 7743   4.112   5.204   2.290  1.1357 -0.1881 -0.9327
  365THF    H12 7744   4.190   5.376   2.438  0.2600  1.1204  0.5698
  365THF    H13 7745   4.235   5.494   2.313 -0.4538  1.4786  0.8755
  366THF     O1 7746   0.189   2.868   0.027  0.0866 -0.1973  0.3509
  366THF     C2 7747   0.287   2.773   0.036 -0.1906 -0.2037  0.1755
  366THF     C3 7748   0.179   2.945   0.146  0.0176  0.8535  0.3264
  366THF     H4 7749   0.383   2.821   0.020 -0.4906  0.8679  1.4077
  366THF     H5 7750   0.275   2.683  -0.025  0.5292 -0.4242  0.3505
  366THF     H6 7751   0.219   3.046   0.144 -1.3765  1.4473  0.7721
  366THF     H7 7752   0.073   2.968   0.160  0.3895  2.7822  0.2190
  366THF     C8 7753   0.243   2.868   0.253 -0.6107 -0.4022 -0.3998
  366THF     C9 7754   0.275   2.735   0.178 -0.2041  0.0248  0.0007
  366THF    H10 7755   0.181   2.857   0.342  1.2143 -0.0833  0.9767
  366THF    H11 7756   0.333   2.920   0.287 -2.3075  2.7263 -0.2680
  366THF    H12 7757   0.360   2.685   0.223 -0.5781 -1.2302 -0.6555
  366THF    H13 7758   0.181   2.680   0.184  0.2376 -0.7900 -0.3916
  367THF     O1 7759   5.253   4.994   3.747 -0.0349 -0.0532  0.7488
  367THF     C2 7760   5.114   4.997   3.732 -0.2540  0.3535 -1.1537
  367THF     C3 7761   5.316   5.097   3.673 -1.0061 -0.9570  0.4869
  367THF     H4 7762   5.089   4.983   3.838  0.8382  1.0868 -0.7868
  367THF     H5 7763   5.085   4.913   3.669  2.2154 -1.1072 -0.4700
  367THF     H6 7764   5.414   5.130   3.708 -0.1560  0.6664 -2.9346
  367THF     H7 7765   5.333   5.066   3.569  2.2223 -2.1179  1.2426
  367THF     C8 7766   5.213   5.204   3.671  0.0079  0.0972  0.1457
  367THF     C9 7767   5.081   5.137   3.672  0.1930 -0.4417  0.1078
  367THF    H10 7768   5.233   5.284   3.600  0.5770  1.0496  1.3501
  367THF    H11 7769   5.214   5.251   3.769  0.0102 -0.2002  0.2875
  367THF    H12 7770   5.003   5.184   3.732  1.7238  1.9138  0.3376
  367THF    H13 7771   5.034   5.132   3.574 -1.4596  1.9762  0.6994
  368THF     O1 7772   3.337   1.158   3.503  0.5982  0.4542 -0.2025
  368THF     C2 7773   3.458   1.097   3.461  0.5205 -0.2780 -0.1544
  368THF     C3 7774   3.226   1.087   3.445  0.7460 -0.6388 -0.7641
  368THF     H4 7775   3.500   1.031   3.537 -0.9395 -2.6253 -1.2730
  368THF     H5 7776   3.524   1.179   3.433 -1.3959  0.2192 -3.7581
  368THF     H6 7777   3.153   1.062   3.521  1.0685  1.1671  0.2133
  368THF     H7 7778   3.176   1.157   3.377  0.2801  0.9844  1.1420
  368THF     C8 7779   3.288   0.966   3.377  0.4899  0.0878  0.0787
  368THF     C9 7780   3.424   1.013   3.331  0.0848  0.2597 -0.4601
  368THF    H10 7781   3.218   0.919   3.309 -2.8322 -1.3303  4.0666
  368THF    H11 7782   3.305   0.886   3.448  1.7935 -0.5769 -0.9477
  368THF    H12 7783   3.492   0.930   3.310  0.6374  0.5304  0.2220
  368THF    H13 7784   3.411   1.089   3.255  3.4451  0.6839 -0.7674
  369THF     O1 7785   0.776   2.864   2.189 -0.6465  0.1119  0.7317
  369THF     C2 7786   0.720   2.738   2.168 -0.2145 -0.2923  0.3385
  369THF     C3 7787   0.727   2.952   2.087 -0.1566  0.5392  0.5422
  369THF     H4 7788   0.641   2.716   2.239 -0.7122  0.2492 -0.0405
  369THF     H5 7789   0.795   2.659   2.180 -0.1622  0.0232  2.5211
  369THF     H6 7790   0.629   2.988   2.118 -0.7086 -0.2084 -0.2878
  369THF     H7 7791   0.784   3.040   2.057  0.3941  1.1466  3.0972
  369THF     C8 7792   0.709   2.860   1.963  0.3856 -0.4359 -0.0815
  369THF     C9 7793   0.663   2.730   2.026 -0.3483 -0.8587  0.4091
  369THF    H10 7794   0.803   2.839   1.913  0.5918 -1.8243  0.8280
  369THF    H11 7795   0.636   2.891   1.888  0.4653 -1.6531 -0.6898
  369THF    H12 7796   0.555   2.720   2.022 -0.4215 -0.1654  0.5533
  369THF    H13 7797   0.713   2.659   1.959  1.0798  2.1352 -1.9592
  370THF     O1 7798   4.152   3.770   1.768  0.9210  0.4272  0.2082
  370THF     C2 7799   4.118   3.636   1.732  0.0058 -0.3829  0.3792
  370THF     C3 7800   4.285   3.759   1.826  0.3915  0.1449  0.2082
  370THF     H4 7801   4.036   3.642   1.661  0.0556  2.5684  0.4430
  370THF     H5 7802   4.081   3.573   1.813 -0.6829 -0.3155  0.1183
  370THF     H6 7803   4.356   3.840   1.810  2.1310 -0.7680  2.7893
  370THF     H7 7804   4.288   3.750   1.934 -0.5917 -2.5175  0.1071
  370THF     C8 7805   4.350   3.639   1.763  0.3863  0.0192 -0.4256
  370THF     C9 7806   4.247   3.579   1.671  0.3693 -0.2614 -0.1827
  370THF    H10 7807   4.374   3.564   1.838  2.9300  0.9355 -0.2434
  370THF    H11 7808   4.445   3.667   1.718  1.3016 -0.7883  0.9283
  370THF    H12 7809   4.263   3.607   1.567 -0.0231  1.2415  0.1353
  370THF    H13 7810   4.246   3.471   1.680 -2.6290 -0.2653  0.4145
  371THF     O1 7811   5.226   2.770   1.598  0.0782 -0.2679  0.2474
  371THF     C2 7812   5.210   2.817   1.728  0.1455  1.0571  0.1279
  371THF     C3 7813   5.298   2.867   1.519 -0.0065  0.4913 -1.2630
  371THF     H4 7814   5.300   2.795   1.786 -0.9028 -2.4938  0.6641
  371THF     H5 7815   5.129   2.760   1.773 -1.0082  1.8276 -0.9115
  371THF     H6 7816   5.401   2.834   1.529 -0.9059 -1.8001  2.9489
  371THF     H7 7817   5.258   2.860   1.418 -0.2038  1.7762 -1.2869
  371THF     C8 7818   5.258   3.005   1.580  0.3686 -0.3890 -0.0573
  371THF     C9 7819   5.190   2.966   1.712  0.1967  0.2676 -0.2624
  371THF    H10 7820   5.198   3.059   1.507 -1.2881 -2.5696 -0.3947
  371THF    H11 7821   5.348   3.066   1.593 -0.6094  1.5452 -1.7004
  371THF    H12 7822   5.244   3.026   1.786  0.2569 -0.4290  0.2753
  371THF    H13 7823   5.086   2.995   1.728 -0.0302 -0.2977 -0.6824
  372THF     O1 7824   4.496   1.929   0.104 -0.3005 -0.1565 -0.3818
  372THF     C2 7825   4.598   1.926   0.003  0.3151 -0.1501  0.2326
  372THF     C3 7826   4.373   1.877   0.048 -0.1916  0.2547 -0.1363
  372THF     H4 7827   4.696   1.939   0.047  0.6111 -0.7459 -0.2449
  372THF     H5 7828   4.571   2.013  -0.056 -2.0275  0.3727  1.9203
  372THF     H6 7829   4.322   1.819   0.125  0.8508 -0.2797  0.1740
  372THF     H7 7830   4.315   1.957   0.002  0.4196  0.0941 -1.2221
  372THF     C8 7831   4.415   1.786  -0.064  0.2065  0.2675 -0.1918
  372THF     C9 7832   4.571   1.789  -0.064 -0.2002 -0.4246  0.0287
  372THF    H10 7833   4.382   1.826  -0.161  1.6442  3.6351  0.5546
  372THF    H11 7834   4.377   1.689  -0.032  1.4911 -0.0694  0.3524
  372THF    H12 7835   4.607   1.713   0.006  2.3734 -1.3491 -2.1212
  372THF    H13 7836   4.619   1.775  -0.160  0.3149  1.8793 -0.1137
  373THF     O1 7837   3.562   0.292   1.711  0.4965 -0.3244  0.1553
  373THF     C2 7838   3.542   0.384   1.603  0.1925 -0.1396 -0.1002
  373THF     C3 7839   3.688   0.233   1.684  0.4551  0.5903  0.6158
  373THF     H4 7840   3.606   0.471   1.622 -2.1808  1.5800  0.5463
  373THF     H5 7841   3.439   0.421   1.603  0.3755  0.3773  0.1145
  373THF     H6 7842   3.766   0.295   1.729  0.1813  2.7382 -1.6477
  373THF     H7 7843   3.700   0.133   1.725 -0.4806 -0.3364 -1.2926
  373THF     C8 7844   3.702   0.233   1.531  0.4471  0.0208  0.5570
  373THF     C9 7845   3.591   0.312   1.472  0.1733 -0.0585 -0.1127
  373THF    H10 7846   3.718   0.138   1.479 -1.5910 -0.2326  0.3046
  373THF    H11 7847   3.795   0.283   1.506  0.0541  0.3158 -0.3696
  373THF    H12 7848   3.618   0.378   1.389  0.5448 -0.4743 -0.3248
  373THF    H13 7849   3.521   0.235   1.439  1.9682 -1.0106 -1.8759
  374THF     O1 7850   1.621   0.535   1.698 -0.1608 -0.3656 -0.3109
  374THF     C2 7851   1.659   0.673   1.705 -0.2584 -0.4536  0.1131
  374THF     C3 7852   1.495   0.536   1.630  0.7393 -0.6443  1.5166
  374THF     H4 7853   1.767   0.675   1.686 -0.0719  2.0746  1.0359
  374THF     H5 7854   1.658   0.703   1.810  0.5885  0.3213 -0.0757
  374THF     H6 7855   1.473   0.446   1.573 -0.7556  0.4774  0.2291
  374THF     H7 7856   1.412   0.557   1.698 -0.2982  3.0589 -0.6286
  374THF     C8 7857   1.502   0.648   1.526  0.9701  0.2359  0.3317
  374THF     C9 7858   1.568   0.754   1.606 -0.0635 -0.0143  0.5146
  374THF    H10 7859   1.396   0.668   1.511  1.5810  2.6736 -1.1723
  374THF    H11 7860   1.560   0.605   1.445  2.7452 -1.2216  2.2499
  374THF    H12 7861   1.632   0.823   1.551  1.1460 -1.8725 -0.4872
  374THF    H13 7862   1.501   0.807   1.674  0.9513  1.6941  0.2400
  375THF     O1 7863   1.341   3.045   0.384  0.6623 -0.0067 -0.3381
  375THF     C2 7864   1.276   3.078   0.265 -0.8138  0.5858  0.0214
  375THF     C3 7865   1.410   3.159   0.429  0.2380 -0.2026  0.2668
  375THF     H4 7866   1.190   3.011   0.260 -0.4326  0.1802 -1.9817
  375THF     H5 7867   1.337   3.067   0.175 -1.0708 -0.1939 -0.0619
  375THF     H6 7868   1.403   3.165   0.537 -1.2005  0.3833  0.1693
  375THF     H7 7869   1.516   3.157   0.403  0.2063  0.2882  0.0949
  375THF     C8 7870   1.341   3.278   0.358  0.1605 -0.3193 -0.0458
  375THF     C9 7871   1.223   3.215   0.298  0.1861 -0.7315  0.0980
  375THF    H10 7872   1.410   3.335   0.294  2.2896  1.6703  3.6665
  375THF    H11 7873   1.314   3.352   0.433  1.4980 -0.5839  0.7335
  375THF    H12 7874   1.157   3.199   0.383  1.0565 -1.4672  0.6588
  375THF    H13 7875   1.172   3.269   0.218  0.3789 -2.4350 -1.2580
  376THF     O1 7876   0.531   2.291   1.104  0.8049  0.0052  0.0727
  376THF     C2 7877   0.396   2.278   1.150  0.1127 -0.7770 -0.0509
  376THF     C3 7878   0.535   2.423   1.037 -0.0581  0.5800 -0.0258
  376THF     H4 7879   0.377   2.317   1.250  1.1124  2.4144 -0.9537
  376THF     H5 7880   0.378   2.171   1.145  0.2675 -0.7609 -1.5398
  376THF     H6 7881   0.604   2.483   1.096 -1.3418 -1.5126  3.9383
  376THF     H7 7882   0.579   2.421   0.937  0.4839 -0.0953  0.2138
  376THF     C8 7883   0.395   2.476   1.044 -0.3975 -0.7233  0.8688
  376THF     C9 7884   0.309   2.357   1.054 -0.3531 -0.0827  0.2324
  376THF    H10 7885   0.380   2.546   0.962 -1.4907 -0.5569  1.2050
  376THF    H11 7886   0.391   2.539   1.132  1.2952  0.7865 -0.0579
  376THF    H12 7887   0.203   2.370   1.074 -0.7127  0.6155 -1.8710
  376THF    H13 7888   0.312   2.303   0.959  0.2385 -0.2609  0.3505
  377THF     O1 7889   1.492   3.508   0.172 -0.1799 -0.0657  0.4499
  377THF     C2 7890   1.475   3.634   0.228 -0.6494  0.4539 -0.0426
  377THF     C3 7891   1.497   3.531   0.031  0.9033  0.6560 -0.3186
  377THF     H4 7892   1.573   3.678   0.247 -1.4540  2.1131  0.4210
  377THF     H5 7893   1.440   3.611   0.328  1.6583 -1.1825  0.4833
  377THF     H6 7894   1.594   3.572   0.002  0.0135  2.6397 -0.6888
  377THF     H7 7895   1.486   3.431  -0.010  1.8931 -0.3307  1.6786
  377THF     C8 7896   1.385   3.623   0.000  0.3622  0.0685 -0.1706
  377THF     C9 7897   1.375   3.698   0.136  1.0911  0.5280  0.0477
  377THF    H10 7898   1.293   3.573  -0.027 -0.5502  0.9298  1.2340
  377THF    H11 7899   1.408   3.686  -0.086  1.8468 -0.8117 -0.4652
  377THF    H12 7900   1.364   3.806   0.124  0.1388  0.2489 -1.8924
  377THF    H13 7901   1.285   3.668   0.190  1.7572 -0.1472  0.8204
  378THF     O1 7902   4.239   1.105   5.410  0.4946  0.1369 -0.3413
  378THF     C2 7903   4.242   1.245   5.413  0.0964  0.5027  0.6863
  378THF     C3 7904   4.315   1.051   5.518 -0.4457 -0.5942  0.2798
  378THF     H4 7905   4.159   1.273   5.478  1.0718  1.8901  1.3697
  378THF     H5 7906   4.227   1.302   5.322 -1.5475  0.1554  0.7145
  378THF     H6 7907   4.255   0.992   5.588  0.3184  2.3590  3.7268
  378THF     H7 7908   4.391   0.987   5.475 -0.5909 -1.5079  1.3217
  378THF     C8 7909   4.379   1.171   5.584 -0.8561 -0.2907 -0.8861
  378THF     C9 7910   4.377   1.279   5.479 -1.0686  0.0417 -0.2399
  378THF    H10 7911   4.466   1.151   5.647 -0.7725  3.0392  0.2307
  378THF    H11 7912   4.306   1.211   5.653 -0.4048 -0.0883 -0.5172
  378THF    H12 7913   4.379   1.380   5.518 -0.7964 -1.1787  3.2858
  378THF    H13 7914   4.465   1.274   5.415 -0.8429  0.5631  0.0310
  379THF     O1 7915   2.080   3.000   3.862 -0.6032  0.0394 -0.1069
  379THF     C2 7916   2.144   3.124   3.826 -1.2703  0.2811  1.0322
  379THF     C3 7917   1.968   3.027   3.949  0.5012  0.4523 -1.6018
  379THF     H4 7918   2.128   3.137   3.719  0.8418 -0.7697  0.5368
  379THF     H5 7919   2.246   3.123   3.863 -1.7818 -1.6465  2.5948
  379THF     H6 7920   1.894   2.957   3.910 -0.7244  1.0999 -0.4901
  379THF     H7 7921   1.998   3.016   4.054  0.1285  0.8259 -1.4544
  379THF     C8 7922   1.928   3.171   3.926 -0.6142 -0.1785  0.4564
  379THF     C9 7923   2.070   3.231   3.902  0.1795 -0.3781 -0.4158
  379THF    H10 7924   1.870   3.219   4.005 -1.7517  0.3015 -0.6234
  379THF    H11 7925   1.868   3.184   3.835  1.3038 -0.2498 -0.8705
  379THF    H12 7926   2.066   3.325   3.848 -0.6474 -0.1738 -0.0004
  379THF    H13 7927   2.118   3.257   3.996 -0.9736  1.2872 -0.2602
  380THF     O1 7928   5.105   4.736   1.825  0.3929 -0.0127  0.2937
  380THF     C2 7929   5.022   4.669   1.921  0.2040 -0.4733 -0.5324
  380THF     C3 7930   5.054   4.690   1.698 -0.4662 -0.0851 -0.8702
  380THF     H4 7931   5.027   4.716   2.019  0.4653 -0.1179 -0.7134
  380THF     H5 7932   5.052   4.564   1.930 -0.2761 -0.5598  0.1306
  380THF     H6 7933   5.073   4.766   1.623 -1.3071  1.3044  0.2789
  380THF     H7 7934   5.089   4.589   1.676 -1.2673 -0.5797  0.0127
  380THF     C8 7935   4.899   4.680   1.717  0.3949 -0.0721  0.2537
  380THF     C9 7936   4.885   4.676   1.868 -0.0225  0.1233  0.6171
  380THF    H10 7937   4.858   4.591   1.669  1.1890 -1.3876  1.9122
  380THF    H11 7938   4.854   4.770   1.674  0.6378 -0.5253 -1.0065
  380THF    H12 7939   4.833   4.762   1.911 -0.3140 -0.8755  2.3267
  380THF    H13 7940   4.823   4.589   1.889 -0.2116  0.1439  0.1737
  381THF     O1 7941   2.871   4.104   3.647 -0.7365 -0.1182 -0.1511
  381THF     C2 7942   2.951   4.145   3.761  0.1890 -0.2643  0.3108
  381THF     C3 7943   2.908   4.184   3.538 -0.6659 -0.5529  0.6040
  381THF     H4 7944   2.974   4.057   3.822 -0.4897 -0.1863  0.6911
  381THF     H5 7945   2.895   4.217   3.821  2.1303  1.5253  0.0906
  381THF     H6 7946   2.878   4.123   3.452 -1.4922 -0.8626  1.1012
  381THF     H7 7947   2.854   4.279   3.532 -0.2226 -0.3610 -0.9755
  381THF     C8 7948   3.058   4.202   3.552  0.1268  0.1616 -0.3024
  381THF     C9 7949   3.071   4.215   3.702  0.7194 -0.1655  0.1993
  381THF    H10 7950   3.086   4.291   3.495 -1.8830 -0.1919 -1.9491
  381THF    H11 7951   3.122   4.123   3.512  1.5366  0.5812  1.0271
  381THF    H12 7952   3.153   4.152   3.734  1.1133 -0.4893 -1.3376
  381THF    H13 7953   3.090   4.318   3.731  0.7279  0.5284 -2.0338
  382THF     O1 7954   2.406   3.356   1.653 -0.0440  0.4583  0.0391
  382THF     C2 7955   2.344   3.293   1.766 -0.5905  0.4266  0.3490
  382THF     C3 7956   2.469   3.244   1.583 -0.3543 -0.2832 -0.2449
  382THF     H4 7957   2.276   3.365   1.811  1.1266  1.2446  1.8029
  382THF     H5 7958   2.413   3.253   1.841  0.4745  0.6577 -0.4900
  382THF     H6 7959   2.484   3.269   1.478 -2.4303 -0.7771 -0.7034
  382THF     H7 7960   2.556   3.213   1.641 -1.2768 -0.6120  1.0138
  382THF     C8 7961   2.362   3.144   1.585 -0.3100  0.1511 -0.3367
  382THF     C9 7962   2.269   3.180   1.697  0.5572 -0.7079 -0.2145
  382THF    H10 7963   2.394   3.041   1.604  0.3090  0.6399  1.4405
  382THF    H11 7964   2.293   3.149   1.502  0.7017  2.1521 -1.1177
  382THF    H12 7965   2.177   3.228   1.664  1.0781  1.7828  1.6622
  382THF    H13 7966   2.254   3.107   1.777 -0.4489 -0.1903  0.0891
  383THF     O1 7967   3.879   0.125   4.503  0.1974  0.4989  0.0713
  383THF     C2 7968   3.753   0.194   4.513 -0.1484  0.3638  1.0044
  383THF     C3 7969   3.933   0.154   4.372  0.5133 -0.1586 -0.3863
  383THF     H4 7970   3.715   0.220   4.612 -0.6331 -0.5557  1.0623
  383THF     H5 7971   3.679   0.137   4.459  1.1537 -0.8628  0.4637
  383THF     H6 7972   4.041   0.138   4.375  0.6472  0.5519 -1.0667
  383THF     H7 7973   3.877   0.084   4.310  0.6591  0.9458 -1.8182
  383THF     C8 7974   3.904   0.300   4.346  0.8117 -0.1022  0.5646
  383THF     C9 7975   3.776   0.326   4.427  0.4218  0.4566  0.5487
  383THF    H10 7976   3.885   0.318   4.241 -1.1042  2.7182  1.2685
  383THF    H11 7977   3.982   0.362   4.389 -0.3688  1.8774 -0.0141
  383THF    H12 7978   3.797   0.406   4.498  1.3794 -0.5607  1.4496
  383THF    H13 7979   3.695   0.361   4.363  0.5712  0.7951  0.5438
  384THF     O1 7980   0.054   2.355   2.880 -0.2802  0.1113 -0.3442
  384THF     C2 7981  -0.035   2.440   2.810  0.1063  0.5518  0.4536
  384THF     C3 7982   0.071   2.244   2.797  0.2484  0.7590 -0.1570
  384THF     H4 7983  -0.031   2.536   2.860 -2.9651  0.5455  0.9125
  384THF     H5 7984  -0.136   2.398   2.811  0.3929 -0.1504  0.7703
  384THF     H6 7985   0.157   2.179   2.810 -1.3388 -1.8314 -1.6632
  384THF     H7 7986  -0.012   2.174   2.784  3.1172 -3.3455  1.6118
  384THF     C8 7987   0.092   2.309   2.663  0.1925  0.2133  0.2289
  384THF     C9 7988   0.041   2.450   2.683  0.7017  0.1103  0.1888
  384THF    H10 7989   0.038   2.254   2.586 -1.0229  0.5208  0.8401
  384THF    H11 7990   0.195   2.300   2.628  0.2119 -3.0995  0.7606
  384THF    H12 7991   0.128   2.514   2.702 -1.4755  3.0106  1.1144
  384THF    H13 7992  -0.013   2.504   2.605  0.0509 -0.7449  0.0342
  385THF     O1 7993   0.824   0.861   2.858 -0.0986  0.1386 -0.4983
  385THF     C2 7994   0.922   0.765   2.887  0.2487 -0.0078  0.1993
  385THF     C3 7995   0.893   0.983   2.825  0.0492 -0.0469  0.0172
  385THF     H4 7996   0.976   0.740   2.796  1.7099 -1.7524  1.4691
  385THF     H5 7997   0.885   0.676   2.939  0.6322  1.0871  2.4811
  385THF     H6 7998   0.925   0.987   2.720  2.9686 -2.3286  0.6893
  385THF     H7 7999   0.832   1.071   2.845  0.5712  0.1991  0.5419
  385THF     C8 8000   1.013   0.987   2.929  0.2825 -0.4077  0.1796
  385THF     C9 8001   1.016   0.840   2.976  0.0530  0.5629  0.1735
  385THF    H10 8002   1.008   1.056   3.012  1.3995 -0.2598  0.1464
  385THF    H11 8003   1.094   1.024   2.866 -0.7608  0.4311 -0.7136
  385THF    H12 8004   1.112   0.791   2.958 -0.5432 -0.9370  0.8967
  385THF    H13 8005   0.997   0.841   3.083 -1.8546 -0.1185 -0.1214
  386THF     O1 8006   0.864   3.054   3.271 -0.2379  0.0838  0.2142
  386THF     C2 8007   0.772   2.950   3.288  1.0578  0.4708 -0.5117
  386THF     C3 8008   0.814   3.139   3.175 -0.0597 -0.0701 -0.6864
  386THF     H4 8009   0.731   2.931   3.388 -0.8319 -2.2485 -1.6946
  386THF     H5 8010   0.837   2.865   3.269 -0.4150 -1.3204  1.8052
  386THF     H6 8011   0.754   3.207   3.234  0.2447  2.1146 -2.7341
  386THF     H7 8012   0.883   3.191   3.109 -1.1554  0.6331 -1.3106
  386THF     C8 8013   0.713   3.058   3.093 -0.2419  0.2594  0.8189
  386THF     C9 8014   0.654   2.967   3.198 -0.4086  0.0897 -0.5098
  386THF    H10 8015   0.772   3.000   3.023  2.6133 -1.1064  4.0624
  386THF    H11 8016   0.638   3.121   3.046 -0.2664 -0.7351 -0.5119
  386THF    H12 8017   0.576   3.024   3.249 -0.9612  3.2810 -4.4402
  386THF    H13 8018   0.609   2.872   3.168 -1.2896  0.5365 -0.6329
  387THF     O1 8019   5.314   0.340   4.868 -0.3843 -0.5293  0.4399
  387THF     C2 8020   5.294   0.292   5.002  0.3416  0.6711 -0.0352
  387THF     C3 8021   5.193   0.299   4.810 -0.4667 -0.2546 -0.1824
  387THF     H4 8022   5.228   0.365   5.049  0.4799  0.9102 -0.2073
  387THF     H5 8023   5.385   0.291   5.062 -0.0593 -0.8147  0.5776
  387THF     H6 8024   5.099   0.337   4.850 -0.7734 -0.5813 -0.5795
  387THF     H7 8025   5.193   0.331   4.706 -1.4284  0.4857  0.0361
  387THF     C8 8026   5.209   0.153   4.829  0.2828  0.0054 -0.2054
  387THF     C9 8027   5.234   0.155   4.980 -0.2647 -0.2098 -0.8939
  387THF    H10 8028   5.291   0.124   4.764  0.9028 -0.0952  0.6004
  387THF    H11 8029   5.125   0.089   4.804  0.6542 -0.9978  0.9926
  387THF    H12 8030   5.139   0.159   5.034 -0.6667  1.9432 -1.6499
  387THF    H13 8031   5.290   0.070   5.019 -0.0445  0.1787 -0.3590
  388THF     O1 8032   0.313   3.017   3.222 -0.2705  0.0681 -0.4770
  388THF     C2 8033   0.299   3.156   3.252 -0.0857  0.1083  0.2796
  388THF     C3 8034   0.291   2.987   3.079 -0.6955  0.0274  0.1323
  388THF     H4 8035   0.393   3.198   3.289 -0.2045  0.3940  0.2542
  388THF     H5 8036   0.219   3.195   3.315  1.2660  0.6024  1.7813
  388THF     H6 8037   0.372   2.923   3.043  2.2091  1.6747  3.1787
  388THF     H7 8038   0.195   2.937   3.069 -0.5197  0.1856 -3.6519
  388THF     C8 8039   0.305   3.119   3.005 -0.3723  0.0001 -1.0994
  388THF     C9 8040   0.299   3.223   3.111  0.1363 -0.2438  0.7455
  388THF    H10 8041   0.215   3.135   2.946 -0.2970  1.5030 -0.8477
  388THF    H11 8042   0.398   3.130   2.949  0.5921  0.8383  0.6146
  388THF    H12 8043   0.382   3.295   3.106  1.6222 -1.7369  2.3592
  388THF    H13 8044   0.209   3.279   3.088  0.4923 -0.5625 -1.6894
  389THF     O1 8045   0.199   4.032   1.536  0.3286  0.5824  0.3663
  389THF     C2 8046   0.235   3.981   1.405  0.4468 -0.1614  0.0029
  389THF     C3 8047   0.150   3.922   1.611  0.3659 -0.5404  1.2904
  389THF     H4 8048   0.334   3.937   1.395 -0.4268 -1.8271 -2.1331
  389THF     H5 8049   0.242   4.059   1.329  0.5840 -0.4266 -0.2566
  389THF     H6 8050   0.223   3.892   1.686 -0.3051 -2.8690  1.0853
  389THF     H7 8051   0.070   3.956   1.677 -1.1755  0.3336 -0.8767
  389THF     C8 8052   0.107   3.809   1.511  0.3602 -0.6163  0.1514
  389THF     C9 8053   0.135   3.875   1.376  0.1447 -0.7328  0.0674
  389THF    H10 8054  -0.001   3.796   1.520  0.0428  1.5670 -0.0755
  389THF    H11 8055   0.171   3.723   1.534 -0.5901 -0.8170  2.2544
  389THF    H12 8056   0.172   3.811   1.296 -1.0431 -0.0832 -1.0341
  389THF    H13 8057   0.044   3.922   1.338  0.8705  2.2573  1.7151
  390THF     O1 8058   0.034   2.610   3.151 -0.1042  0.0057 -0.4487
  390THF     C2 8059  -0.107   2.623   3.173  0.3775  0.0143  0.7274
  390THF     C3 8060   0.082   2.527   3.258  0.1785 -0.3267 -0.0345
  390THF     H4 8061  -0.154   2.640   3.076 -0.5373  1.3638  1.3787
  390THF     H5 8062  -0.125   2.706   3.241  2.4130  1.1154  0.0035
  390THF     H6 8063   0.184   2.497   3.234  0.5181  2.0873 -2.0935
  390THF     H7 8064   0.089   2.582   3.352 -0.0850 -0.3456 -0.0044
  390THF     C8 8065  -0.023   2.415   3.264 -0.0526 -0.3345  0.5755
  390THF     C9 8066  -0.150   2.482   3.230  0.0492 -0.2684  0.2083
  390THF    H10 8067  -0.017   2.360   3.359  1.8841 -0.6512  0.3030
  390THF    H11 8068   0.010   2.355   3.180  2.7804  1.2119  0.4865
  390THF    H12 8069  -0.203   2.421   3.156 -0.2965  1.1685 -0.7809
  390THF    H13 8070  -0.220   2.480   3.314 -1.9067  1.2442 -1.2893
  391THF     O1 8071   0.009   4.280   3.483 -0.4524 -0.0534  0.1286
  391THF     C2 8072  -0.124   4.274   3.553 -0.3255 -0.0897 -0.3840
  391THF     C3 8073  -0.004   4.209   3.360  0.3580 -0.2892 -0.4294
  391THF     H4 8074  -0.179   4.366   3.537  0.5180  0.1368 -2.1598
  391THF     H5 8075  -0.122   4.260   3.662  0.5532 -2.0390 -0.6000
  391THF     H6 8076   0.015   4.275   3.276 -2.1154 -0.7377 -1.4320
  391THF     H7 8077   0.065   4.125   3.364  1.3793  0.5594  0.6124
  391THF     C8 8078  -0.152   4.166   3.353  0.1020 -0.5271  0.8696
  391THF     C9 8079  -0.198   4.156   3.495 -0.4272 -0.0694  0.4416
  391THF    H10 8080  -0.167   4.073   3.299  0.3989 -1.1645  1.8402
  391THF    H11 8081  -0.211   4.244   3.306  2.4141  0.1956 -1.0200
  391THF    H12 8082  -0.302   4.172   3.522 -0.8210  0.6208 -1.3745
  391THF    H13 8083  -0.157   4.064   3.538  0.9462 -0.1083 -0.8657
  392THF     O1 8084   1.621   5.054   0.885 -0.1051  0.3463 -0.3591
  392THF     C2 8085   1.717   5.071   0.982 -0.2273 -0.4780 -0.3813
  392THF     C3 8086   1.634   5.150   0.781  0.6217  0.0674  0.0657
  392THF     H4 8087   1.721   4.986   1.050 -0.3040  1.0567  1.6449
  392THF     H5 8088   1.694   5.160   1.041 -0.4936  0.3862 -1.7545
  392THF     H6 8089   1.582   5.113   0.693 -0.4698  0.9140  0.3248
  392THF     H7 8090   1.590   5.247   0.807  0.7844 -0.3578  2.0775
  392THF     C8 8091   1.784   5.176   0.781 -0.2632 -0.1061  0.6167
  392THF     C9 8092   1.844   5.107   0.906  0.1234 -0.8347  0.1954
  392THF    H10 8093   1.806   5.282   0.766 -1.9178  0.1848 -0.0686
  392THF    H11 8094   1.838   5.137   0.695 -0.2253  1.4488 -0.0974
  392THF    H12 8095   1.887   5.011   0.878  0.0103 -0.4496 -1.4131
  392THF    H13 8096   1.921   5.166   0.956 -1.5628  1.4157  0.3010
  393THF     O1 8097   4.583   1.370   2.936 -0.2948 -0.1888  0.6296
  393THF     C2 8098   4.580   1.282   2.824  0.3076  0.0179  0.1557
  393THF     C3 8099   4.543   1.495   2.884 -0.2480 -0.1206  0.7069
  393THF     H4 8100   4.480   1.244   2.799 -0.2486  0.8063  1.0998
  393THF     H5 8101   4.632   1.192   2.856 -0.7028 -0.5740  0.1894
  393THF     H6 8102   4.438   1.487   2.858 -0.2324 -0.6099  0.7964
  393THF     H7 8103   4.566   1.570   2.959 -0.1870  0.8313 -0.2370
  393THF     C8 8104   4.633   1.506   2.763 -0.3171  0.3667 -0.0387
  393THF     C9 8105   4.646   1.361   2.713  0.4928  0.0851  0.1259
  393THF    H10 8106   4.731   1.550   2.781  0.1734 -0.9755  0.6759
  393THF    H11 8107   4.581   1.567   2.690  0.7389  0.0188 -1.1004
  393THF    H12 8108   4.608   1.344   2.613  0.4484 -2.7690  0.5586
  393THF    H13 8109   4.753   1.344   2.730 -0.0129 -1.6561  1.8090
  394THF     O1 8110   4.729   2.618   0.124 -0.3981 -0.1149 -0.5838
  394THF     C2 8111   4.683   2.640   0.260  0.0767  0.0255  0.2095
  394THF     C3 8112   4.816   2.721   0.088 -0.0691  0.4394  0.1044
  394THF     H4 8113   4.680   2.548   0.318  0.3451 -1.7910 -2.4750
  394THF     H5 8114   4.579   2.669   0.243  0.5391  1.3493 -0.5167
  394THF     H6 8115   4.918   2.689   0.110 -0.1536 -0.5011 -0.8028
  394THF     H7 8116   4.832   2.735  -0.020 -2.6651  0.5497 -0.3256
  394THF     C8 8117   4.784   2.832   0.183  0.8109 -0.7471  0.2084
  394THF     C9 8118   4.750   2.765   0.315 -0.8162  0.3712  0.3750
  394THF    H10 8119   4.702   2.892   0.144  2.1277  1.2784  0.4353
  394THF    H11 8120   4.872   2.895   0.198  1.9749 -1.1357 -3.7899
  394THF    H12 8121   4.842   2.733   0.364  0.5470  0.6787 -1.8477
  394THF    H13 8122   4.676   2.819   0.375 -0.5356  1.2281 -0.0377
  395THF     O1 8123   2.004   1.185   2.649  0.6052  0.1764 -0.3059
  395THF     C2 8124   2.040   1.044   2.656  0.0617  0.2550  0.2925
  395THF     C3 8125   2.009   1.223   2.513  0.5161  0.4441 -0.0094
  395THF     H4 8126   1.959   0.978   2.622  1.1305  0.2960 -2.6158
  395THF     H5 8127   2.071   1.034   2.760 -1.3853 -0.8038  0.6527
  395THF     H6 8128   1.920   1.184   2.463  1.2597  0.0006 -1.0272
  395THF     H7 8129   1.997   1.328   2.486 -1.0736  0.2778 -0.0290
  395THF     C8 8130   2.141   1.162   2.465  0.6788  0.0776 -0.7624
  395THF     C9 8131   2.159   1.033   2.550  0.2198  0.2049  0.5886
  395THF    H10 8132   2.229   1.221   2.489  1.6098 -1.0762 -1.2724
  395THF    H11 8133   2.141   1.138   2.358 -1.9615  0.6188 -0.9502
  395THF    H12 8134   2.164   0.948   2.483  2.3394 -0.4660  1.5216
  395THF    H13 8135   2.261   1.049   2.586  1.2678 -0.1511 -1.9901
  396THF     O1 8136   1.292   4.033   4.854 -0.1053 -0.5156  0.6429
  396THF     C2 8137   1.193   3.935   4.883 -0.5072 -0.1620 -0.3893
  396THF     C3 8138   1.290   4.052   4.708 -0.4478 -0.4913  0.2482
  396THF     H4 8139   1.093   3.977   4.893 -0.8001 -0.6570 -1.1495
  396THF     H5 8140   1.219   3.904   4.985  0.1966  3.9785  0.8690
  396THF     H6 8141   1.191   4.097   4.697  0.3192  1.7620  1.8369
  396THF     H7 8142   1.376   4.109   4.671 -0.3655 -0.2461  0.8054
  396THF     C8 8143   1.274   3.913   4.653  0.1550 -0.1247 -0.0536
  396THF     C9 8144   1.219   3.834   4.772 -0.2122  0.7143 -0.9976
  396THF    H10 8145   1.370   3.867   4.629  0.0668 -2.0584  2.8055
  396THF    H11 8146   1.214   3.922   4.563  0.5292  0.0264 -0.2887
  396THF    H12 8147   1.123   3.781   4.767 -0.0409  0.1124  1.0109
  396THF    H13 8148   1.297   3.765   4.803  0.7856  2.2103 -0.0552
  397THF     O1 8149   1.880   0.482   3.511  0.3664  0.1662 -0.4829
  397THF     C2 8150   1.746   0.440   3.478 -0.5413 -0.4611  0.0703
  397THF     C3 8151   1.934   0.557   3.401 -0.1652 -0.5526 -1.2949
  397THF     H4 8152   1.680   0.522   3.507  2.3690  1.7130  1.1014
  397THF     H5 8153   1.730   0.352   3.539  0.8903 -0.7109  0.1080
  397THF     H6 8154   1.929   0.666   3.405  1.1685 -0.4804 -1.1109
  397THF     H7 8155   2.041   0.537   3.388  0.2629  0.5602  0.1945
  397THF     C8 8156   1.860   0.514   3.279  0.2764 -0.0608  0.2282
  397THF     C9 8157   1.749   0.424   3.324  0.1934 -0.1329 -0.2982
  397THF    H10 8158   1.932   0.450   3.227  1.0921  0.9699  0.0561
  397THF    H11 8159   1.825   0.589   3.208  0.0631  1.5476  1.9741
  397THF    H12 8160   1.653   0.467   3.295 -1.9545 -3.3063  1.5244
  397THF    H13 8161   1.762   0.322   3.289  2.6241  0.5272 -1.5109
  398THF     O1 8162   0.540   4.653   1.091  0.1118  0.2751 -0.4003
  398THF     C2 8163   0.510   4.701   1.221 -0.1407 -0.1604 -0.1159
  398THF     C3 8164   0.665   4.586   1.110  1.3001 -0.6097 -0.0529
  398THF     H4 8165   0.408   4.740   1.226 -0.4595 -1.1085  1.4532
  398THF     H5 8166   0.582   4.777   1.251  1.7974 -0.2874 -3.8948
  398THF     H6 8167   0.692   4.522   1.027  2.2959  0.3781 -0.5277
  398THF     H7 8168   0.739   4.666   1.115 -0.4787  1.3236 -2.2309
  398THF     C8 8169   0.638   4.500   1.238  0.3597  0.0347 -0.2446
  398THF     C9 8170   0.514   4.567   1.291 -0.5417  0.3461 -0.3686
  398THF    H10 8171   0.725   4.490   1.302  0.1164  0.4946  0.1725
  398THF    H11 8172   0.610   4.398   1.213 -3.2456  1.0839 -1.1601
  398THF    H12 8173   0.426   4.511   1.260 -0.2835 -0.2108 -0.1072
  398THF    H13 8174   0.534   4.575   1.397  0.7084  0.7679 -0.6209
  399THF     O1 8175   3.185   3.710   3.738 -0.9144 -0.1720  0.5155
  399THF     C2 8176   3.285   3.677   3.836  0.2357 -0.0334  0.4329
  399THF     C3 8177   3.186   3.847   3.718  0.3247 -0.2918  0.1599
  399THF     H4 8178   3.321   3.578   3.808  2.4056  1.4979 -2.7553
  399THF     H5 8179   3.237   3.690   3.933 -2.0929 -0.0896 -0.6211
  399THF     H6 8180   3.147   3.878   3.621  0.2965 -0.8676 -0.0200
  399THF     H7 8181   3.133   3.899   3.797 -0.8477 -1.7501  0.3773
  399THF     C8 8182   3.333   3.886   3.724  0.0904  0.4283  0.0498
  399THF     C9 8183   3.396   3.771   3.797  0.0205 -0.8452 -0.1452
  399THF    H10 8184   3.347   3.973   3.787  0.5251 -0.7482  1.6526
  399THF    H11 8185   3.375   3.894   3.624  1.8454  0.1982  0.7360
  399THF    H12 8186   3.474   3.726   3.736 -1.4333 -0.7822 -2.1673
  399THF    H13 8187   3.441   3.819   3.884  2.9541  2.9995 -3.4479
  400THF     O1 8188   3.188   0.901   4.825 -0.1246  0.3693  0.0406
  400THF     C2 8189   3.058   0.929   4.879 -0.0376  0.3743  0.2915
  400THF     C3 8190   3.255   1.024   4.825 -0.1441  0.0518 -0.5863
  400THF     H4 8191   3.059   0.927   4.988  0.1940  0.7482  0.2968
  400THF     H5 8192   2.981   0.859   4.849  0.1716  0.4675 -0.4698
  400THF     H6 8193   3.326   1.030   4.907  0.6591  0.7233 -1.3046
  400THF     H7 8194   3.308   1.036   4.730  1.5039 -0.9038  0.1675
  400THF     C8 8195   3.154   1.133   4.842  0.0082  0.2888  0.0663
  400THF     C9 8196   3.024   1.059   4.825  0.3418 -0.1778 -0.1529
  400THF    H10 8197   3.153   1.212   4.767 -1.2913 -1.7234 -2.1903
  400THF    H11 8198   3.156   1.187   4.936  0.6237  0.6551 -0.1462
  400THF    H12 8199   2.948   1.103   4.889  2.0319 -0.0155  1.8515
  400THF    H13 8200   2.988   1.042   4.723  0.5016  0.5165 -0.3272
  401THF     O1 8201   2.226   1.219   2.043 -0.0337 -0.5280 -0.3268
  401THF     C2 8202   2.325   1.307   2.087 -0.4073 -0.4436 -0.3222
  401THF     C3 8203   2.246   1.204   1.903 -0.0569  0.5126 -0.3270
  401THF     H4 8204   2.423   1.258   2.088 -1.0019 -1.6678  1.0349
  401THF     H5 8205   2.313   1.361   2.181  0.6928 -2.3382  0.9714
  401THF     H6 8206   2.332   1.137   1.901  0.3742  0.8997  2.2786
  401THF     H7 8207   2.163   1.151   1.855 -0.0980  0.5760 -0.3259
  401THF     C8 8208   2.287   1.338   1.850  0.2821 -0.3248 -0.1650
  401THF     C9 8209   2.322   1.415   1.980  0.1820  0.3560  0.2861
  401THF    H10 8210   2.202   1.389   1.805  0.5616 -1.6746 -2.3800
  401THF    H11 8211   2.371   1.324   1.782  1.0294  0.5835  0.5462
  401THF    H12 8212   2.417   1.468   1.979  1.1584 -1.2949  0.9168
  401THF    H13 8213   2.246   1.486   2.011 -0.2380 -0.4473  1.1344
  402THF     O1 8214   5.331   3.935   4.399 -0.4159 -0.3034  0.5728
  402THF     C2 8215   5.407   4.005   4.502  0.4611  0.0114 -0.0522
  402THF     C3 8216   5.402   3.815   4.374  0.4679 -0.0565  0.1904
  402THF     H4 8217   5.335   4.067   4.554 -0.7731  0.0340 -1.7240
  402THF     H5 8218   5.489   4.067   4.465  1.3769 -1.2679 -0.2121
  402THF     H6 8219   5.334   3.734   4.348  1.1672  0.0128 -2.1067
  402THF     H7 8220   5.462   3.835   4.285 -0.5808 -1.9789 -1.0260
  402THF     C8 8221   5.492   3.786   4.484 -0.3007 -0.0171 -0.9044
  402THF     C9 8222   5.451   3.885   4.589 -0.1596 -0.1216  0.3513
  402THF    H10 8223   5.595   3.807   4.454  0.1645 -0.7629  0.1268
  402THF    H11 8224   5.480   3.681   4.511 -1.0439 -0.0623 -1.4100
  402THF    H12 8225   5.372   3.849   4.654 -0.7090 -0.1604 -0.3186
  402THF    H13 8226   5.534   3.911   4.654 -1.1054  0.0644  1.5294
  403THF     O1 8227   3.514   2.208   1.477 -0.0356 -0.5642 -0.6775
  403THF     C2 8228   3.584   2.192   1.600 -0.2826 -0.3343  0.3949
  403THF     C3 8229   3.491   2.073   1.423  0.4524 -0.3682  0.4259
  403THF     H4 8230   3.519   2.197   1.687 -0.4194  0.6626  0.2473
  403THF     H5 8231   3.665   2.265   1.599 -0.1726 -0.4399  1.2023
  403THF     H6 8232   3.386   2.056   1.399  0.9712 -0.2326 -2.2599
  403THF     H7 8233   3.552   2.060   1.334 -0.5383 -0.6944 -0.2255
  403THF     C8 8234   3.535   1.978   1.533 -0.1379 -0.5405 -0.1211
  403THF     C9 8235   3.645   2.055   1.597  0.4316  0.6532 -0.8418
  403THF    H10 8236   3.572   1.886   1.488 -0.4849 -1.3792  1.2683
  403THF    H11 8237   3.463   1.947   1.607 -2.5966  3.4057 -0.5282
  403THF    H12 8238   3.669   2.016   1.696  0.2794 -0.3570 -1.1976
  403THF    H13 8239   3.735   2.058   1.535  0.5901  0.1264 -0.6451
  404THF     O1 8240   2.081   4.429   2.133 -0.0163  0.4748  0.1457
  404THF     C2 8241   2.222   4.443   2.106  0.2706 -0.5987  0.2792
  404THF     C3 8242   2.021   4.398   1.999 -0.2391  0.1643  0.2145
  404THF     H4 8243   2.263   4.343   2.122  2.3018  0.3751  1.5292
  404THF     H5 8244   2.254   4.507   2.188 -1.7021  3.2748 -1.6882
  404THF     H6 8245   2.054   4.304   1.955  0.7233  0.9766 -0.8620
  404THF     H7 8246   1.912   4.394   2.004 -0.2393  1.1105  1.1966
  404THF     C8 8247   2.099   4.502   1.906  1.6986  1.0391 -0.2043
  404THF     C9 8248   2.240   4.508   1.965  0.1127  0.4505 -0.2303
  404THF    H10 8249   2.052   4.600   1.902  1.3225  0.9300  0.9357
  404THF    H11 8250   2.097   4.448   1.811 -0.4535 -1.7794  1.2483
  404THF    H12 8251   2.316   4.461   1.903 -2.0394  0.1907 -2.8809
  404THF    H13 8252   2.275   4.611   1.974 -1.2319  0.8492  0.7872
  405THF     O1 8253   4.753   1.759   1.836  0.5123  0.3272 -0.0890
  405THF     C2 8254   4.743   1.702   1.703 -0.2753  0.1249 -0.1232
  405THF     C3 8255   4.797   1.661   1.929  0.2220 -0.9535  0.0086
  405THF     H4 8256   4.743   1.783   1.630 -0.9079 -0.0254 -0.2967
  405THF     H5 8257   4.659   1.634   1.687  1.0087 -1.4920 -0.2767
  405THF     H6 8258   4.827   1.693   2.028 -2.8476  0.9132  0.4609
  405THF     H7 8259   4.714   1.593   1.944 -1.3567  0.3611 -2.0612
  405THF     C8 8260   4.908   1.595   1.850  0.0214 -0.2981 -0.0794
  405THF     C9 8261   4.859   1.603   1.703 -0.1673 -0.3188 -0.0915
  405THF    H10 8262   4.940   1.494   1.876  1.6165 -0.2557 -1.6419
  405THF    H11 8263   4.997   1.659   1.846  1.1203 -1.8122 -2.1731
  405THF    H12 8264   4.933   1.654   1.641 -0.4147 -0.4797 -0.5270
  405THF    H13 8265   4.838   1.507   1.654  0.9954 -0.4529 -0.3452
  406THF     O1 8266   0.773   4.448   4.657  0.4369  0.0542 -0.0122
  406THF     C2 8267   0.735   4.583   4.702 -0.0328  0.2399 -0.1512
  406THF     C3 8268   0.719   4.420   4.529 -0.6690 -0.3570  0.7036
  406THF     H4 8269   0.806   4.664   4.684  1.7550 -0.8104  1.8427
  406THF     H5 8270   0.717   4.582   4.809 -2.0485  0.0493 -0.4365
  406THF     H6 8271   0.803   4.403   4.462 -0.0627  1.1774  1.0142
  406THF     H7 8272   0.654   4.333   4.530  0.1114 -0.9539  1.4939
  406THF     C8 8273   0.638   4.543   4.496 -0.2881 -0.3294 -0.5015
  406THF     C9 8274   0.607   4.606   4.627  0.6670 -0.1433 -0.0712
  406THF    H10 8275   0.552   4.516   4.434  0.5372 -0.9345 -1.4004
  406THF    H11 8276   0.708   4.608   4.444  1.7784 -1.3138  0.9198
  406THF    H12 8277   0.583   4.712   4.618 -0.5191 -0.3263  0.6246
  406THF    H13 8278   0.529   4.557   4.685  0.5839  1.0746  0.8795
  407THF     O1 8279   5.021   4.158   1.171 -0.0992  0.3370 -0.3747
  407THF     C2 8280   5.005   4.256   1.276  0.5603 -0.0676  0.4655
  407THF     C3 8281   4.930   4.174   1.059 -0.1980  0.1480 -0.1911
  407THF     H4 8282   5.086   4.323   1.246 -0.1221 -0.6479 -3.0587
  407THF     H5 8283   5.016   4.210   1.375 -2.4419 -1.3248  0.3087
  407THF     H6 8284   4.994   4.217   0.982 -0.1934 -0.7478 -0.7032
  407THF     H7 8285   4.890   4.082   1.016  0.4595  0.0092 -0.5256
  407THF     C8 8286   4.819   4.275   1.105  0.4715 -0.4892  0.3702
  407THF     C9 8287   4.858   4.301   1.253 -0.4153  0.2907 -0.4658
  407THF    H10 8288   4.718   4.237   1.089  0.0115  1.0252 -0.6133
  407THF    H11 8289   4.821   4.361   1.038  0.6428 -0.1473  0.8084
  407THF    H12 8290   4.836   4.406   1.274  1.5709  0.6933 -0.1936
  407THF    H13 8291   4.786   4.246   1.313  0.2056  2.0673  2.0691
  408THF     O1 8292   2.068   2.501   2.172  0.2422  0.0323 -0.5564
  408THF     C2 8293   2.043   2.389   2.260 -0.4484 -0.3749 -0.3372
  408THF     C3 8294   1.940   2.549   2.148  0.4818  0.3201  0.4193
  408THF     H4 8295   2.139   2.363   2.306  0.0043  0.0584 -1.0196
  408THF     H5 8296   2.022   2.304   2.195  1.2728 -1.2813  0.2291
  408THF     H6 8297   1.933   2.648   2.104 -0.1229  1.0097  1.9901
  408THF     H7 8298   1.879   2.483   2.086  0.8555  2.4197 -2.3772
  408THF     C8 8299   1.868   2.545   2.281 -0.5913  0.3107 -0.4291
  408THF     C9 8300   1.928   2.431   2.358 -0.1527  0.0951 -0.1902
  408THF    H10 8301   1.760   2.529   2.278 -0.4592 -0.8681  0.5329
  408THF    H11 8302   1.898   2.633   2.337 -1.3767 -0.0800  0.6191
  408THF    H12 8303   1.967   2.469   2.453 -0.6717  1.1657 -0.3904
  408THF    H13 8304   1.859   2.348   2.373 -0.0778  0.0124 -0.3085
  409THF     O1 8305   4.016   5.248   5.292  0.0143  0.6682 -0.3586
  409THF     C2 8306   3.932   5.183   5.196  0.4403  0.0504 -0.6954
  409THF     C3 8307   3.962   5.374   5.311  0.1127  0.0237 -0.4730
  409THF     H4 8308   3.943   5.075   5.193  0.2226 -0.0603  1.2708
  409THF     H5 8309   3.949   5.229   5.098  0.1820  0.2754 -0.6369
  409THF     H6 8310   4.003   5.402   5.408  1.6065  0.0670 -1.0987
  409THF     H7 8311   3.993   5.430   5.223  0.2842 -0.9302 -1.0260
  409THF     C8 8312   3.806   5.351   5.308 -0.2638  0.4934  0.0244
  409THF     C9 8313   3.799   5.215   5.250  0.2695  0.3361 -0.3752
  409THF    H10 8314   3.758   5.436   5.258  1.1976  0.8399 -0.8366
  409THF    H11 8315   3.780   5.348   5.414  1.5602 -0.2785  0.4810
  409THF    H12 8316   3.757   5.145   5.323  0.9863 -0.7795 -0.9956
  409THF    H13 8317   3.732   5.205   5.165 -0.4915 -1.2425  0.3690
  410THF     O1 8318   1.065   2.471   5.290  0.2544  0.3413 -0.3135
  410THF     C2 8319   1.127   2.471   5.165  0.7437 -0.4771 -0.5998
  410THF     C3 8320   1.047   2.340   5.340 -0.2874 -0.0475  0.9953
  410THF     H4 8321   1.187   2.562   5.164 -1.0899  0.8067  0.3890
  410THF     H5 8322   1.062   2.473   5.077 -0.9568  1.7090  0.6188
  410THF     H6 8323   1.056   2.328   5.448  0.7033 -0.3227  0.8913
  410THF     H7 8324   0.943   2.314   5.319 -0.1157 -0.3536  0.5108
  410THF     C8 8325   1.123   2.253   5.246  0.2222 -0.3909  0.1200
  410THF     C9 8326   1.210   2.343   5.163 -0.4003  0.2790 -0.0108
  410THF    H10 8327   1.061   2.199   5.174  0.5458  1.7829 -1.9007
  410THF    H11 8328   1.186   2.177   5.292  1.3135  0.1916 -0.3759
  410THF    H12 8329   1.302   2.353   5.221 -0.7359 -2.9488  1.2605
  410THF    H13 8330   1.247   2.306   5.067  0.5207  0.2658  0.3343
  411THF     O1 8331   1.998   3.126   2.514 -0.2247  0.7670 -0.0387
  411THF     C2 8332   1.929   3.230   2.578 -0.2611 -0.0478 -0.1887
  411THF     C3 8333   1.923   3.009   2.525 -0.0761  0.1274  0.1525
  411THF     H4 8334   1.845   3.267   2.519  0.7578 -1.1060 -2.4765
  411THF     H5 8335   1.998   3.314   2.590  1.5052 -1.5719  0.9618
  411THF     H6 8336   1.845   3.013   2.450  0.9665 -1.8819 -1.1443
  411THF     H7 8337   1.968   2.910   2.519 -1.3649 -0.5882  1.6770
  411THF     C8 8338   1.864   3.023   2.666 -0.4168  0.5655  0.3093
  411THF     C9 8339   1.896   3.164   2.713 -0.2083  0.2935  0.5691
  411THF    H10 8340   1.891   2.950   2.743 -2.3433  0.2921  0.7978
  411THF    H11 8341   1.755   3.023   2.654 -0.6841  1.1527  2.2787
  411THF    H12 8342   1.809   3.214   2.756 -1.8352 -0.1085 -2.0096
  411THF    H13 8343   1.987   3.160   2.773 -1.5865 -0.2052  2.7573
  412THF     O1 8344   1.188   2.827   3.975 -0.0714 -0.9591 -0.1272
  412THF     C2 8345   1.281   2.917   3.927  0.5105  0.8888  0.5017
  412THF     C3 8346   1.234   2.698   3.960  0.0530  0.1843 -0.0012
  412THF     H4 8347   1.294   3.009   3.982  2.3432  1.4259 -0.7264
  412THF     H5 8348   1.247   2.932   3.824  0.3296 -2.9568 -0.1815
  412THF     H6 8349   1.190   2.625   4.029 -2.3482  1.7743  0.2882
  412THF     H7 8350   1.200   2.657   3.865  0.8113  0.8809 -0.5895
  412THF     C8 8351   1.381   2.718   3.988 -0.3141 -0.5501 -0.3631
  412THF     C9 8352   1.413   2.851   3.919 -0.2838 -0.2447 -0.2541
  412THF    H10 8353   1.448   2.633   3.968 -0.2287 -0.6163  0.2035
  412THF    H11 8354   1.397   2.728   4.095 -1.5563  0.5753 -0.2664
  412THF    H12 8355   1.483   2.914   3.974 -0.0858 -0.0660 -0.7067
  412THF    H13 8356   1.443   2.841   3.815 -0.6036 -1.5623 -0.2353
  413THF     O1 8357   0.757   4.069   2.944  0.3586 -0.2209 -0.4119
  413THF     C2 8358   0.752   4.028   3.082  0.1754 -0.1716  0.1301
  413THF     C3 8359   0.676   4.185   2.936  0.1599  0.2305 -0.2167
  413THF     H4 8360   0.828   3.957   3.116  0.7446 -0.6575 -2.0106
  413THF     H5 8361   0.658   3.988   3.121  0.8592 -2.2807 -0.2414
  413THF     H6 8362   0.709   4.240   2.847  1.5297  0.0975  0.1753
  413THF     H7 8363   0.571   4.158   2.930  0.6472 -1.6812 -0.8205
  413THF     C8 8364   0.706   4.261   3.060 -0.0135 -0.3224  0.0583
  413THF     C9 8365   0.779   4.160   3.149 -0.2197 -0.0676  0.1139
  413THF    H10 8366   0.613   4.280   3.113  0.5612  0.2876  0.8913
  413THF    H11 8367   0.755   4.357   3.046  1.6315 -0.4646  3.5455
  413THF    H12 8368   0.885   4.186   3.148  0.3207 -2.1229 -0.3297
  413THF    H13 8369   0.742   4.159   3.252 -2.7423  0.7186 -0.6918
  414THF     O1 8370   2.812   2.175   3.436  0.1486 -0.0125 -0.1991
  414THF     C2 8371   2.714   2.209   3.536 -0.2612  0.7314 -0.1403
  414THF     C3 8372   2.797   2.034   3.418 -0.2593 -0.1514 -0.2680
  414THF     H4 8373   2.616   2.221   3.489 -0.3691  1.0690  0.1643
  414THF     H5 8374   2.739   2.298   3.594 -0.5925  0.0614  1.0749
  414THF     H6 8375   2.715   2.012   3.349 -1.6899  0.8302  1.0312
  414THF     H7 8376   2.889   1.994   3.376 -1.0933 -0.6005 -1.7573
  414THF     C8 8377   2.781   1.985   3.562 -0.2738 -0.3864 -0.6093
  414THF     C9 8378   2.709   2.096   3.643  0.2352 -0.3794  0.3227
  414THF    H10 8379   2.875   1.956   3.609 -0.4237  0.6223  0.3555
  414THF    H11 8380   2.724   1.892   3.554 -0.8785 -0.1455  0.7269
  414THF    H12 8381   2.612   2.065   3.682  1.4523 -1.8595  2.2922
  414THF    H13 8382   2.761   2.145   3.724 -0.8163  0.5000  0.4968
  415THF     O1 8383   5.030   0.731   1.618  0.2150  0.0892 -0.0732
  415THF     C2 8384   5.041   0.592   1.599 -0.0731 -0.4978 -0.4975
  415THF     C3 8385   5.086   0.798   1.509 -0.2421  0.4903 -0.0865
  415THF     H4 8386   4.938   0.555   1.606 -0.1034 -0.4491 -0.6710
  415THF     H5 8387   5.099   0.556   1.683 -1.0634 -0.2108  0.3257
  415THF     H6 8388   5.017   0.809   1.426 -0.7778 -0.2413  0.2482
  415THF     H7 8389   5.127   0.895   1.538  1.9750  0.2433 -2.0740
  415THF     C8 8390   5.198   0.699   1.457  0.1799  0.1761  0.0595
  415THF     C9 8391   5.118   0.574   1.468 -0.7372 -0.4868  0.1373
  415THF    H10 8392   5.277   0.705   1.532  0.0305  0.0818  0.2238
  415THF    H11 8393   5.255   0.722   1.366 -0.2040 -2.4354 -0.9144
  415THF    H12 8394   5.054   0.571   1.380  1.9785 -1.5481 -1.9554
  415THF    H13 8395   5.189   0.494   1.449  0.6014  1.4256 -4.3090
  416THF     O1 8396   3.958   5.215   1.337 -0.5664 -0.1434  0.2194
  416THF     C2 8397   4.013   5.282   1.223  1.2056 -0.5608 -0.5009
  416THF     C3 8398   3.937   5.081   1.291 -0.1779  0.1512  0.3422
  416THF     H4 8399   4.050   5.379   1.255 -0.4602 -0.0483  0.0018
  416THF     H5 8400   3.928   5.291   1.156 -0.2179  0.4815  1.3438
  416THF     H6 8401   3.936   5.011   1.375  0.8377 -1.6133 -1.0543
  416THF     H7 8402   3.850   5.064   1.229 -0.3511  2.4534 -0.1367
  416THF     C8 8403   4.068   5.054   1.214  0.4581  0.6286 -0.1402
  416THF     C9 8404   4.123   5.186   1.174 -0.1973 -0.6491  0.6686
  416THF    H10 8405   4.043   4.996   1.125  0.2013 -0.8079  0.8240
  416THF    H11 8406   4.135   4.994   1.276 -2.0706 -0.9644  1.1910
  416THF    H12 8407   4.213   5.216   1.228 -0.2515  1.8491 -0.5182
  416THF    H13 8408   4.149   5.188   1.069 -0.3193 -0.7497  0.6361
  417THF     O1 8409   0.747   0.659   0.234 -0.2457  0.1893  0.3490
  417THF     C2 8410   0.618   0.603   0.210  0.3201 -0.2767 -0.1375
  417THF     C3 8411   0.724   0.796   0.276  0.0514 -0.0361  0.0117
  417THF     H4 8412   0.620   0.495   0.215  0.9865 -0.2822 -0.4600
  417THF     H5 8413   0.571   0.621   0.113 -1.2487  2.8456  1.0467
  417THF     H6 8414   0.807   0.847   0.326  0.0252 -1.1691  1.2824
  417THF     H7 8415   0.698   0.857   0.189  2.2463  1.7099  0.4600
  417THF     C8 8416   0.611   0.782   0.369  0.1536 -0.4892 -0.3787
  417THF     C9 8417   0.532   0.665   0.316  0.2766  0.4645 -0.8614
  417THF    H10 8418   0.544   0.868   0.367 -0.2450 -0.7671  0.4970
  417THF    H11 8419   0.640   0.763   0.472  1.0936 -0.3808 -0.6154
  417THF    H12 8420   0.517   0.578   0.380 -1.6180  1.7366  0.5257
  417THF    H13 8421   0.433   0.690   0.277 -0.3166 -0.8961 -0.2973
  418THF     O1 8422   0.781   1.015   3.569  0.1698  0.4780  0.5125
  418THF     C2 8423   0.848   1.115   3.647 -0.2256  0.1064  0.5814
  418THF     C3 8424   0.680   0.958   3.645  0.2034  0.2173  0.4803
  418THF     H4 8425   0.915   1.181   3.592  1.9460 -3.3265 -1.2780
  418THF     H5 8426   0.909   1.075   3.728 -1.2274  0.8186  1.7292
  418THF     H6 8427   0.606   0.919   3.575  0.8053 -1.0674  0.5226
  418THF     H7 8428   0.712   0.870   3.701 -0.1671  1.4854  2.8186
  418THF     C8 8429   0.634   1.064   3.740  0.2790  0.2847 -0.4971
  418THF     C9 8430   0.723   1.184   3.706 -0.7781 -0.0720  0.0207
  418THF    H10 8431   0.646   1.030   3.843  1.6347 -0.7008 -0.9590
  418THF    H11 8432   0.529   1.090   3.729  0.8728  2.7724 -0.9200
  418THF    H12 8433   0.671   1.234   3.625  1.3940  2.2386 -0.0955
  418THF    H13 8434   0.745   1.251   3.789  1.7115  0.8985 -1.3255
  419THF     O1 8435   4.497   0.182   4.245  0.4158 -0.3368  0.6099
  419THF     C2 8436   4.566   0.098   4.337 -0.0609  0.6419 -0.8416
  419THF     C3 8437   4.398   0.098   4.192 -0.8526  0.8591 -0.3871
  419THF     H4 8438   4.598   0.155   4.424 -2.4044  1.2874 -0.3246
  419THF     H5 8439   4.651   0.046   4.294 -0.2203  1.1847 -1.8493
  419THF     H6 8440   4.333   0.170   4.142 -0.4333  1.5385  0.0118
  419THF     H7 8441   4.432   0.032   4.113  1.5348  1.0696  0.3731
  419THF     C8 8442   4.347   0.018   4.313 -0.8325 -0.6723 -0.0098
  419THF     C9 8443   4.475  -0.015   4.387  0.6223 -0.6672 -0.1802
  419THF    H10 8444   4.297  -0.073   4.282 -1.5514 -0.0380 -0.7765
  419THF    H11 8445   4.285   0.084   4.375 -0.1280 -0.7802  0.8238
  419THF    H12 8446   4.464  -0.012   4.496  3.9913 -1.2394  0.2913
  419THF    H13 8447   4.506  -0.116   4.360  1.5364 -0.9470  1.7059
  420THF     O1 8448   0.553   0.464   3.851 -0.2043 -0.1372 -0.0347
  420THF     C2 8449   0.498   0.510   3.728  0.2939  0.1664 -0.2663
  420THF     C3 8450   0.462   0.488   3.956  0.2433  0.5578  0.3891
  420THF     H4 8451   0.473   0.422   3.669  0.2620  0.4744 -0.7169
  420THF     H5 8452   0.571   0.554   3.660  0.5551 -0.2623 -0.2689
  420THF     H6 8453   0.403   0.400   3.980 -1.2546  1.4766  0.2443
  420THF     H7 8454   0.514   0.505   4.050  2.0641 -1.3447 -0.1929
  420THF     C8 8455   0.376   0.596   3.902  0.6835 -0.3716 -0.1630
  420THF     C9 8456   0.363   0.582   3.750  0.2767  0.7423 -0.5404
  420THF    H10 8457   0.426   0.691   3.921 -0.5378  0.7987 -2.3488
  420THF    H11 8458   0.278   0.625   3.940 -0.3363  1.9464 -3.9434
  420THF    H12 8459   0.284   0.508   3.735  1.4041 -0.7522  0.5508
  420THF    H13 8460   0.333   0.676   3.705 -0.8528  1.1442  0.9450
  421THF     O1 8461   0.162   3.316   3.882  0.4627 -0.2760 -0.1250
  421THF     C2 8462   0.066   3.246   3.964 -0.4701  0.1543 -0.9223
  421THF     C3 8463   0.231   3.224   3.799  0.0038  0.6822 -0.3712
  421THF     H4 8464  -0.016   3.212   3.900 -1.5828 -0.7404  0.8940
  421THF     H5 8465   0.039   3.310   4.048 -0.4685  0.7852 -1.3954
  421THF     H6 8466   0.158   3.215   3.718  1.1608  0.2055 -1.3934
  421THF     H7 8467   0.323   3.275   3.773  0.1359  1.5297  1.5546
  421THF     C8 8468   0.232   3.095   3.878 -0.0539 -0.8240 -0.9343
  421THF     C9 8469   0.148   3.123   4.004  0.7148  0.3040  0.9401
  421THF    H10 8470   0.331   3.073   3.918 -0.8552  0.0878  1.8096
  421THF    H11 8471   0.185   3.013   3.825 -0.0562 -1.1314 -0.4610
  421THF    H12 8472   0.088   3.032   4.013 -0.2919  0.4244 -2.7354
  421THF    H13 8473   0.214   3.136   4.090  1.1395  0.4239  0.6016
  422THF     O1 8474   3.857   1.326   2.336  0.2209 -0.2907  0.0115
  422THF     C2 8475   3.746   1.394   2.280 -0.5866 -0.6030  0.2223
  422THF     C3 8476   3.842   1.187   2.330 -0.1109 -0.0841  0.3960
  422THF     H4 8477   3.773   1.449   2.191  1.8380  3.7439  3.2736
  422THF     H5 8478   3.723   1.479   2.345 -0.5181 -0.0358 -0.4835
  422THF     H6 8479   3.919   1.130   2.277 -0.7516 -0.4333 -0.1705
  422THF     H7 8480   3.827   1.148   2.431 -0.1423 -0.3689  0.2817
  422THF     C8 8481   3.716   1.157   2.247  0.4541  0.3493  0.2163
  422THF     C9 8482   3.638   1.287   2.266 -0.2866 -0.0738 -0.0918
  422THF    H10 8483   3.667   1.067   2.285  1.0436 -1.7210 -3.4334
  422THF    H11 8484   3.740   1.136   2.143 -0.8503  0.8561 -0.2012
  422THF    H12 8485   3.576   1.315   2.182 -0.7269  0.4841  0.4100
  422THF    H13 8486   3.604   1.294   2.370  2.3484  2.6160  0.7222
  423THF     O1 8487   0.126   5.494   1.841 -0.2555  0.0949  0.2382
  423THF     C2 8488   0.261   5.476   1.868  0.4135 -0.7414 -0.5685
  423THF     C3 8489   0.056   5.369   1.872  1.0223  0.4009 -0.1453
  423THF     H4 8490   0.288   5.553   1.940 -1.0192 -0.6716 -0.0722
  423THF     H5 8491   0.324   5.501   1.782 -0.4445  2.4518 -0.3886
  423THF     H6 8492  -0.007   5.403   1.954  1.6950  1.6218 -0.1076
  423THF     H7 8493  -0.003   5.345   1.784  2.2507  0.7635 -1.1029
  423THF     C8 8494   0.159   5.262   1.903 -0.4109 -0.6346  0.6169
  423THF     C9 8495   0.285   5.347   1.929  0.2590 -0.4105 -0.3499
  423THF    H10 8496   0.180   5.205   1.812 -1.4141 -0.3537  0.1941
  423THF    H11 8497   0.140   5.192   1.984 -1.3761  0.8286  1.6993
  423THF    H12 8498   0.299   5.369   2.035  0.7068 -0.3627 -0.4172
  423THF    H13 8499   0.380   5.312   1.890  1.8382  1.1837  1.8374
  424THF     O1 8500   1.142   3.903   0.356  0.0781  0.2302  0.2480
  424THF     C2 8501   1.061   4.009   0.403 -0.4588  0.1986  0.2843
  424THF     C3 8502   1.276   3.908   0.410  0.7150 -0.5695 -0.1506
  424THF     H4 8503   1.009   3.992   0.497 -0.3497  2.4388  0.8132
  424THF     H5 8504   0.987   4.044   0.330  0.6404  2.1706  0.0293
  424THF     H6 8505   1.303   3.825   0.475  1.8542 -0.8711 -0.9803
  424THF     H7 8506   1.343   3.926   0.326  2.1127  0.3275  1.0992
  424THF     C8 8507   1.274   4.042   0.488  0.6323 -1.0380  0.3337
  424THF     C9 8508   1.159   4.119   0.436  0.2283 -0.3748 -0.2381
  424THF    H10 8509   1.370   4.093   0.492 -0.1548  0.4715  0.8004
  424THF    H11 8510   1.244   4.020   0.590 -0.3615 -0.5064  0.1728
  424THF    H12 8511   1.126   4.195   0.506 -0.4162 -1.3647  0.5649
  424THF    H13 8512   1.193   4.169   0.346 -3.0349  2.9068  0.1145
  425THF     O1 8513   5.321   0.790   2.936 -0.4607 -0.6051 -0.0115
  425THF     C2 8514   5.450   0.743   2.901  0.5243  0.2910  0.0933
  425THF     C3 8515   5.244   0.791   2.825 -0.2790 -0.0789  0.4435
  425THF     H4 8516   5.439   0.635   2.894  1.0937  0.3207 -2.5132
  425THF     H5 8517   5.528   0.767   2.973  0.1077  0.8706  0.3583
  425THF     H6 8518   5.186   0.701   2.807  0.8603 -0.6491 -0.5069
  425THF     H7 8519   5.162   0.863   2.831 -1.2340 -0.8770 -1.9283
  425THF     C8 8520   5.334   0.835   2.714  0.4689 -0.6229  0.2291
  425THF     C9 8521   5.473   0.797   2.759 -0.1339 -0.5020  0.6856
  425THF    H10 8522   5.319   0.942   2.697 -0.2887 -0.5759  1.1552
  425THF    H11 8523   5.312   0.785   2.619  3.1748  0.6485 -1.1970
  425THF    H12 8524   5.531   0.723   2.705  3.7158  2.2523  0.6288
  425THF    H13 8525   5.534   0.888   2.760  0.7701 -1.1022  1.5333
  426THF     O1 8526   4.931   1.300   2.305 -0.1458 -0.1704 -0.1863
  426THF     C2 8527   4.891   1.404   2.386 -0.4045 -0.6527  0.5415
  426THF     C3 8528   5.050   1.343   2.242  0.7257 -0.4073 -0.0679
  426THF     H4 8529   4.954   1.429   2.471 -0.0230  2.1262 -0.4480
  426THF     H5 8530   4.789   1.381   2.416  0.0016 -0.8051  1.8519
  426THF     H6 8531   5.130   1.331   2.316 -0.0632  1.7697  1.2446
  426THF     H7 8532   5.064   1.272   2.161  3.9354  0.2664 -0.2488
  426THF     C8 8533   5.010   1.489   2.203  0.1208 -0.1456 -0.1295
  426THF     C9 8534   4.890   1.527   2.291 -0.3700 -0.0491 -0.3860
  426THF    H10 8535   4.976   1.495   2.100  1.4193  0.0777 -0.5507
  426THF    H11 8536   5.091   1.561   2.210  1.1304 -1.4009  2.4042
  426THF    H12 8537   4.916   1.624   2.333  0.3406 -0.3582 -0.1021
  426THF    H13 8538   4.800   1.539   2.231  0.4511  0.7506 -1.4980
  427THF     O1 8539   2.925   5.044   1.529 -0.2945 -0.2280 -0.3458
  427THF     C2 8540   2.844   5.133   1.596  0.1129 -0.3007 -0.3888
  427THF     C3 8541   2.952   4.933   1.617  0.3474  0.0568 -0.0307
  427THF     H4 8542   2.744   5.091   1.608 -0.1816  0.3986 -0.3630
  427THF     H5 8543   2.845   5.223   1.535 -2.0323 -1.3185 -2.0288
  427THF     H6 8544   2.876   4.856   1.608  1.5065 -1.3661  1.7123
  427THF     H7 8545   3.043   4.877   1.601  0.7616 -0.1479  2.5694
  427THF     C8 8546   2.947   4.998   1.753 -0.1468  0.3887  0.1625
  427THF     C9 8547   2.922   5.144   1.728  0.1779  0.3099 -0.3510
  427THF    H10 8548   3.039   4.986   1.810  0.0050  1.8579  0.2614
  427THF    H11 8549   2.873   4.947   1.814 -1.1900 -0.2316 -1.5540
  427THF    H12 8550   2.867   5.192   1.809  0.6702 -2.3516  1.7368
  427THF    H13 8551   3.016   5.192   1.702  0.8443 -1.4862 -1.4274
  428THF     O1 8552   4.168   4.297   4.191  0.6271  0.0724 -0.0064
  428THF     C2 8553   4.291   4.294   4.263  0.6091 -0.0609 -0.2674
  428THF     C3 8554   4.129   4.429   4.152  0.4640  0.4632 -0.0585
  428THF     H4 8555   4.369   4.231   4.222  0.4700 -0.3615 -0.0755
  428THF     H5 8556   4.275   4.252   4.362 -0.9696 -0.2708 -0.5814
  428THF     H6 8557   4.177   4.452   4.057  2.9739 -3.0185  0.1809
  428THF     H7 8558   4.020   4.438   4.143  0.2771 -1.1778  0.2591
  428THF     C8 8559   4.204   4.508   4.258  0.7627 -0.0117  0.3286
  428THF     C9 8560   4.331   4.438   4.277 -0.2423  0.2394  0.3683
  428THF    H10 8561   4.142   4.511   4.348 -0.0597 -2.2811 -0.1138
  428THF    H11 8562   4.214   4.609   4.217  1.0614 -0.7835 -1.5764
  428THF    H12 8563   4.396   4.465   4.195 -0.9591  1.6486  0.2467
  428THF    H13 8564   4.384   4.457   4.371  1.5535  0.0893 -0.5684
  429THF     O1 8565   1.832   3.636   3.791  0.0476  0.0596 -0.9707
  429THF     C2 8566   1.788   3.509   3.756  0.0158  0.7013  0.7213
  429THF     C3 8567   1.849   3.644   3.930  0.1462 -0.1180  0.3707
  429THF     H4 8568   1.869   3.436   3.757 -0.4051  0.1112 -1.9702
  429THF     H5 8569   1.735   3.490   3.663 -0.4838  0.1818  1.1005
  429THF     H6 8570   1.940   3.602   3.973 -0.1509 -0.8121  0.3292
  429THF     H7 8571   1.853   3.750   3.957 -1.0943 -0.0133  0.1892
  429THF     C8 8572   1.727   3.568   3.988  0.7198  0.1745 -0.4356
  429THF     C9 8573   1.688   3.482   3.872 -0.2621 -0.1215  0.8644
  429THF    H10 8574   1.643   3.629   4.022  0.7185  1.4071 -2.4800
  429THF    H11 8575   1.747   3.506   4.075 -0.2836  0.7045  0.1974
  429THF    H12 8576   1.694   3.376   3.897  0.5716 -0.8450 -2.0440
  429THF    H13 8577   1.584   3.497   3.846 -0.3732  0.0660  1.4075
  430THF     O1 8578   1.775   4.619   0.794 -0.4259 -0.5237 -0.1086
  430THF     C2 8579   1.850   4.611   0.917 -0.3390 -0.0668  0.4885
  430THF     C3 8580   1.712   4.749   0.798 -0.1753  0.1574  0.0422
  430THF     H4 8581   1.947   4.658   0.901 -0.7131  0.1024 -1.5428
  430THF     H5 8582   1.872   4.510   0.951  0.2485 -0.1783 -0.1995
  430THF     H6 8583   1.778   4.835   0.811  1.0719 -1.0793  2.6259
  430THF     H7 8584   1.649   4.763   0.711 -1.3237 -1.5112  0.5570
  430THF     C8 8585   1.641   4.728   0.931 -0.3051  0.2046 -0.4294
  430THF     C9 8586   1.765   4.693   1.016 -0.1912  0.5817  1.0962
  430THF    H10 8587   1.566   4.650   0.936 -2.5760  2.3281  0.5474
  430THF    H11 8588   1.591   4.822   0.956 -2.2180 -0.8130 -0.2741
  430THF    H12 8589   1.818   4.785   1.040  0.8618  0.5008 -0.7600
  430THF    H13 8590   1.734   4.648   1.110 -3.0131 -1.1480 -0.4934
  431THF     O1 8591   5.007   4.742   3.049 -0.3437 -0.4136 -0.6283
  431THF     C2 8592   5.022   4.870   3.112  0.2079 -0.3663  0.4885
  431THF     C3 8593   4.997   4.754   2.909 -0.2363 -0.4327 -0.0394
  431THF     H4 8594   5.067   4.861   3.211  0.9593 -1.1311  0.0976
  431THF     H5 8595   4.921   4.910   3.114  0.0767 -0.3102 -2.5112
  431THF     H6 8596   5.061   4.680   2.862  1.8583  1.3420 -0.1529
  431THF     H7 8597   4.896   4.750   2.868  0.1678  1.1287 -1.2964
  431THF     C8 8598   5.059   4.896   2.883  0.0290  0.3640  0.3066
  431THF     C9 8599   5.124   4.938   3.019 -0.2405  0.1449  0.3199
  431THF    H10 8600   4.982   4.971   2.867 -0.8812 -0.7144 -0.4246
  431THF    H11 8601   5.119   4.892   2.792  0.5728  0.3217  0.6614
  431THF    H12 8602   5.220   4.892   3.042  0.3394  1.0828 -0.1751
  431THF    H13 8603   5.128   5.046   3.033  2.4249  0.0856  0.4572
  432THF     O1 8604   2.370   2.681   0.564 -0.1722 -0.4786  0.1510
  432THF     C2 8605   2.347   2.708   0.420 -0.0515  0.0007 -0.1495
  432THF     C3 8606   2.273   2.753   0.635  0.3013 -0.0208 -0.2210
  432THF     H4 8607   2.304   2.618   0.377  1.1155 -0.3405 -0.6312
  432THF     H5 8608   2.442   2.710   0.366  0.2164  0.1004  0.3181
  432THF     H6 8609   2.187   2.686   0.632  1.0678 -1.3302  2.9919
  432THF     H7 8610   2.305   2.773   0.737 -0.7055 -0.3430  0.1747
  432THF     C8 8611   2.253   2.882   0.552  0.2939 -1.0898  0.6493
  432THF     C9 8612   2.280   2.844   0.407  0.3348 -0.0765  0.1801
  432THF    H10 8613   2.320   2.958   0.592 -1.0694 -0.1302  1.1877
  432THF    H11 8614   2.158   2.927   0.581  0.7396  1.8593 -1.8384
  432THF    H12 8615   2.189   2.845   0.347 -0.4163  2.3648  1.2592
  432THF    H13 8616   2.350   2.914   0.364 -0.3256  0.6235  0.2222
  433THF     O1 8617   1.490   2.534   0.514 -0.4095 -0.0384 -1.0381
  433THF     C2 8618   1.555   2.591   0.400  0.0111 -0.0928 -1.1082
  433THF     C3 8619   1.369   2.489   0.459  0.2942 -0.8805  0.0502
  433THF     H4 8620   1.579   2.511   0.331 -1.9733 -1.0785 -0.7486
  433THF     H5 8621   1.645   2.646   0.425 -0.4349  0.1343  0.0610
  433THF     H6 8622   1.382   2.400   0.398  0.2194 -0.2718 -0.8906
  433THF     H7 8623   1.294   2.458   0.531  0.7267 -1.9873  0.0387
  433THF     C8 8624   1.324   2.605   0.365 -0.2532  0.2170  0.2434
  433THF     C9 8625   1.449   2.684   0.347  0.0242 -0.1482 -0.2052
  433THF    H10 8626   1.242   2.646   0.424 -0.5775 -1.8780  1.3075
  433THF    H11 8627   1.302   2.574   0.262  0.8648 -0.4722  0.1923
  433THF    H12 8628   1.467   2.724   0.246 -2.7813  0.1707 -0.6437
  433THF    H13 8629   1.431   2.776   0.402 -1.9471 -0.4270 -0.3375
  434THF     O1 8630   3.439   1.553   5.478  0.7791 -0.3629 -0.1329
  434THF     C2 8631   3.370   1.557   5.360 -0.4621  0.0832  0.0177
  434THF     C3 8632   3.499   1.420   5.495 -0.5754  0.0591  0.2283
  434THF     H4 8633   3.433   1.621   5.298 -1.4420  1.3802  0.2944
  434THF     H5 8634   3.272   1.604   5.367  0.5238  2.4313 -0.9135
  434THF     H6 8635   3.600   1.412   5.535  0.1503 -0.4982 -1.6091
  434THF     H7 8636   3.429   1.376   5.566 -1.1505 -0.3092 -0.5514
  434THF     C8 8637   3.495   1.354   5.359 -0.5493 -0.1837  0.2165
  434THF     C9 8638   3.362   1.412   5.317  0.1282 -0.3390 -0.1875
  434THF    H10 8639   3.498   1.245   5.361  0.2217 -0.1597  0.5245
  434THF    H11 8640   3.586   1.381   5.306  0.2148 -1.5527  0.7958
  434THF    H12 8641   3.360   1.394   5.209  2.4907 -2.5591  0.0542
  434THF    H13 8642   3.277   1.366   5.367  1.9693 -1.6724  1.8993
  435THF     O1 8643   4.500   3.439   2.482  0.0564 -0.1550  0.2377
  435THF     C2 8644   4.400   3.352   2.429  0.5721  0.0955  0.6074
  435THF     C3 8645   4.523   3.539   2.384  0.1829 -0.4064 -0.1782
  435THF     H4 8646   4.324   3.321   2.500  0.7942 -0.8979  0.4311
  435THF     H5 8647   4.443   3.261   2.388  1.4795  0.3329  1.0037
  435THF     H6 8648   4.562   3.630   2.431 -1.2242 -0.2299  0.7151
  435THF     H7 8649   4.582   3.507   2.298 -1.2920 -1.0843 -0.9796
  435THF     C8 8650   4.385   3.572   2.321  0.4665 -0.0343 -0.4820
  435THF     C9 8651   4.321   3.433   2.317  0.3441  0.0686  0.3425
  435THF    H10 8652   4.386   3.618   2.222  0.8964 -2.8980 -1.9220
  435THF    H11 8653   4.330   3.631   2.394  0.1795  0.9654 -1.4842
  435THF    H12 8654   4.214   3.444   2.332  0.3700  1.8223 -0.5727
  435THF    H13 8655   4.337   3.396   2.215  1.6302 -0.9380  0.8734
  436THF     O1 8656   1.461   1.536   3.577  0.0683 -0.0013 -0.4503
  436THF     C2 8657   1.400   1.441   3.494  0.0529 -0.1981 -0.1773
  436THF     C3 8658   1.588   1.473   3.606 -0.6171  0.0080 -0.1929
  436THF     H4 8659   1.447   1.429   3.397 -0.8101  0.5339 -0.6992
  436THF     H5 8660   1.292   1.458   3.487 -0.0102 -0.6831 -0.4406
  436THF     H6 8661   1.667   1.487   3.533  1.6720  0.7708  2.2742
  436THF     H7 8662   1.630   1.513   3.698  1.4562 -0.7254 -0.7622
  436THF     C8 8663   1.554   1.329   3.639  0.1060  0.3650 -0.6023
  436THF     C9 8664   1.421   1.307   3.568 -0.0218 -0.7878 -0.2345
  436THF    H10 8665   1.557   1.314   3.747 -1.1539 -5.0593 -1.0346
  436THF    H11 8666   1.621   1.262   3.585 -0.3635 -1.1029  0.5640
  436THF    H12 8667   1.434   1.220   3.503 -0.3937  0.1193 -1.5777
  436THF    H13 8668   1.338   1.281   3.634 -0.5024 -1.7250 -1.1804
  437THF     O1 8669   2.073   1.926   1.488 -0.1658  0.0379 -0.0138
  437THF     C2 8670   2.058   1.784   1.476  0.4080 -0.3183  0.4912
  437THF     C3 8671   2.178   1.951   1.394 -0.2763  0.5215  0.0438
  437THF     H4 8672   1.969   1.738   1.518 -0.1376 -0.3436 -0.6684
  437THF     H5 8673   2.137   1.729   1.527 -1.4403 -1.2597  2.4907
  437THF     H6 8674   2.203   2.057   1.386 -0.1872  0.4384 -0.8099
  437THF     H7 8675   2.275   1.917   1.430 -0.9264  0.6080  2.0146
  437THF     C8 8676   2.131   1.879   1.263  0.7117  0.3009  0.2576
  437THF     C9 8677   2.043   1.763   1.324  0.1033  0.2316 -0.3162
  437THF    H10 8678   2.222   1.827   1.230 -0.6358 -0.5719 -2.4054
  437THF    H11 8679   2.082   1.938   1.186 -0.8919 -0.0218  0.9964
  437THF    H12 8680   1.946   1.806   1.298  0.3327  1.5800  0.9810
  437THF    H13 8681   2.055   1.658   1.298  1.3836  0.0765  0.7881
  438THF     O1 8682   0.669   3.287   1.909 -0.0342 -0.1564  0.2728
  438THF     C2 8683   0.533   3.251   1.916  1.1585  0.2108 -0.3645
  438THF     C3 8684   0.704   3.336   2.036 -1.1054  0.9291 -0.0244
  438THF     H4 8685   0.513   3.150   1.953  0.7179 -0.0953 -1.4226
  438THF     H5 8686   0.485   3.243   1.819  2.0748  1.1205 -0.9134
  438THF     H6 8687   0.736   3.259   2.106 -0.6442  0.5306 -0.6641
  438THF     H7 8688   0.786   3.407   2.023  0.7806 -1.3225 -1.0035
  438THF     C8 8689   0.578   3.412   2.088 -0.1005  0.4913 -0.4773
  438THF     C9 8690   0.464   3.352   2.013 -0.1476  0.7808 -0.1811
  438THF    H10 8691   0.588   3.515   2.055 -1.5385  0.7691 -0.0966
  438THF    H11 8692   0.566   3.413   2.196 -0.9525 -0.9397 -0.5299
  438THF    H12 8693   0.397   3.306   2.086 -0.1030 -2.0564 -1.7945
  438THF    H13 8694   0.408   3.432   1.965  2.8478  2.3595 -1.3301
  439THF     O1 8695   1.028   4.684   5.148 -0.2753 -0.5639  0.3817
  439THF     C2 8696   1.082   4.622   5.032  0.0902 -0.1160 -0.2793
  439THF     C3 8697   0.939   4.598   5.210 -0.1775  0.3688 -0.0864
  439THF     H4 8698   1.187   4.644   5.013  0.0615 -0.4499 -0.8420
  439THF     H5 8699   1.026   4.655   4.944 -0.2711  0.9214  0.3204
  439THF     H6 8700   0.992   4.582   5.303 -1.2352  1.3322  0.7214
  439THF     H7 8701   0.841   4.640   5.236 -0.1287  1.1879 -1.1395
  439THF     C8 8702   0.941   4.465   5.135  0.0676  0.2102 -0.2260
  439THF     C9 8703   1.069   4.477   5.057  0.6030 -0.2924 -0.3591
  439THF    H10 8704   0.852   4.467   5.073 -0.5601  0.1729  0.6504
  439THF    H11 8705   0.941   4.374   5.195  3.0011  2.0108  2.8507
  439THF    H12 8706   1.154   4.442   5.115  0.5016  0.1159  0.0383
  439THF    H13 8707   1.061   4.406   4.974  1.1109 -2.0470  1.0157
  440THF     O1 8708   1.927   2.488   4.031 -0.4211 -0.3538  0.2751
  440THF     C2 8709   1.925   2.605   4.114  0.1290  0.7881  1.1804
  440THF     C3 8710   1.824   2.406   4.079  0.3845 -0.4115  0.1178
  440THF     H4 8711   1.992   2.679   4.070 -0.1085  0.2538 -0.1304
  440THF     H5 8712   1.959   2.582   4.214  2.0685 -1.0990  0.1693
  440THF     H6 8713   1.796   2.323   4.014 -2.2916  0.8297 -0.4256
  440THF     H7 8714   1.848   2.361   4.175  1.6219 -0.0888 -0.0114
  440THF     C8 8715   1.709   2.513   4.079 -0.1696 -0.3329 -0.1431
  440THF     C9 8716   1.775   2.643   4.118  0.1200 -0.3576  0.3354
  440THF    H10 8717   1.628   2.485   4.146 -0.1107 -3.6376 -1.2557
  440THF    H11 8718   1.667   2.523   3.979 -0.3333 -0.1449 -0.0568
  440THF    H12 8719   1.758   2.733   4.058  0.8832  1.0062  2.0609
  440THF    H13 8720   1.751   2.680   4.218 -0.7642  0.7772 -0.2660
  441THF     O1 8721   2.074   1.282   2.890  0.0278  0.3437 -0.0600
  441THF     C2 8722   2.183   1.359   2.857 -0.0169 -0.0885  0.2795
  441THF     C3 8723   2.112   1.184   2.988  0.6778  0.4585 -0.1845
  441THF     H4 8724   2.178   1.439   2.931  0.9942 -0.5212  0.8405
  441THF     H5 8725   2.180   1.402   2.756 -0.6606  0.9018  0.7064
  441THF     H6 8726   2.101   1.211   3.093  0.3276 -1.7527  0.3823
  441THF     H7 8727   2.050   1.095   2.982  2.2916 -0.9116  1.7986
  441THF     C8 8728   2.256   1.142   2.949 -0.5352  0.8106 -0.1392
  441THF     C9 8729   2.308   1.265   2.880  0.0036  0.2919  0.1577
  441THF    H10 8730   2.250   1.062   2.875 -0.8322  1.6414 -1.0401
  441THF    H11 8731   2.316   1.106   3.032 -1.0176 -2.0753 -0.9371
  441THF    H12 8732   2.391   1.309   2.935  1.9148 -0.5877 -1.9140
  441THF    H13 8733   2.329   1.256   2.774 -0.3568 -0.1417  0.1202
  442THF     O1 8734   2.338   3.639   1.310  0.0010  0.0613 -0.1323
  442THF     C2 8735   2.372   3.680   1.445  0.0295  0.0989 -0.1771
  442THF     C3 8736   2.294   3.745   1.228  0.2287 -0.0361 -0.2180
  442THF     H4 8737   2.480   3.691   1.461 -0.1163 -0.3725  1.2075
  442THF     H5 8738   2.344   3.609   1.522 -3.9180  1.1898 -0.4244
  442THF     H6 8739   2.376   3.807   1.192  2.5827 -1.7188  1.8885
  442THF     H7 8740   2.238   3.708   1.142 -2.8648  3.1200  0.2007
  442THF     C8 8741   2.214   3.818   1.336  0.3575 -0.0390  0.6146
  442THF     C9 8742   2.309   3.821   1.451  0.8244 -0.2811  0.0073
  442THF    H10 8743   2.122   3.763   1.360 -0.2001  0.4833 -0.2633
  442THF    H11 8744   2.186   3.920   1.312  0.3885 -0.0566  0.5028
  442THF    H12 8745   2.388   3.894   1.432  1.3880 -1.2684 -1.6461
  442THF    H13 8746   2.260   3.843   1.546  1.7873 -3.4286  1.3823
  443THF     O1 8747   3.460   3.636   0.708  0.0803  0.1343  0.1191
  443THF     C2 8748   3.351   3.579   0.626 -0.0510 -0.2729  0.4500
  443THF     C3 8749   3.570   3.562   0.701  0.3304  1.0306  0.1664
  443THF     H4 8750   3.291   3.653   0.572 -2.1936 -1.8993  0.4878
  443THF     H5 8751   3.279   3.535   0.695 -0.8838  0.2790 -0.0433
  443THF     H6 8752   3.646   3.619   0.647 -1.2924  2.2076 -0.9467
  443THF     H7 8753   3.605   3.535   0.801  0.4296  0.2923 -0.0620
  443THF     C8 8754   3.522   3.432   0.621 -0.3373 -0.2481 -0.9087
  443THF     C9 8755   3.415   3.475   0.533 -0.0984  0.0646  0.3802
  443THF    H10 8756   3.476   3.365   0.695  0.7972  1.1206  1.1485
  443THF    H11 8757   3.592   3.372   0.564 -1.6106 -1.1526 -1.5765
  443THF    H12 8758   3.449   3.525   0.443 -0.5776  0.1444  0.2390
  443THF    H13 8759   3.355   3.393   0.493 -0.2130 -0.1235  0.9295
  444THF     O1 8760   3.384   3.551   1.182 -0.1437  0.0442 -0.2999
  444THF     C2 8761   3.531   3.553   1.156  0.1802  0.4190  0.0284
  444THF     C3 8762   3.342   3.415   1.158 -0.3509 -0.5459  0.1099
  444THF     H4 8763   3.573   3.624   1.227 -1.0825  0.8688  0.3515
  444THF     H5 8764   3.547   3.585   1.053  1.8040  0.3784  0.2419
  444THF     H6 8765   3.253   3.389   1.215  0.3413 -0.2749  1.3411
  444THF     H7 8766   3.338   3.401   1.050  1.5782  1.2331 -0.2502
  444THF     C8 8767   3.455   3.334   1.219  0.0104  0.1041 -0.2228
  444THF     C9 8768   3.582   3.407   1.171  0.3223  0.2156  1.6081
  444THF    H10 8769   3.449   3.227   1.200 -0.2961 -0.2019  1.4581
  444THF    H11 8770   3.455   3.347   1.327  0.3574  0.5893 -0.2770
  444THF    H12 8771   3.658   3.408   1.249 -0.5890 -1.2756  2.5785
  444THF    H13 8772   3.608   3.362   1.076 -0.5337 -1.5093  2.1515
  445THF     O1 8773   5.504   0.989   1.904  0.0907  0.0786  0.4800
  445THF     C2 8774   5.578   0.887   1.964 -0.1586  0.8018 -0.1534
  445THF     C3 8775   5.376   0.947   1.864  0.1810 -0.4365 -0.6013
  445THF     H4 8776   5.553   0.850   2.063  0.9527  0.4021 -0.0150
  445THF     H5 8777   5.683   0.911   1.952  0.0151  0.1266 -0.0406
  445THF     H6 8778   5.308   0.954   1.948 -0.1099 -2.5402 -0.5922
  445THF     H7 8779   5.351   1.014   1.782 -0.7324  0.3991  0.3439
  445THF     C8 8780   5.401   0.803   1.819 -0.1055  0.2731 -0.7381
  445THF     C9 8781   5.540   0.774   1.866 -0.2023  0.1414  0.2047
  445THF    H10 8782   5.392   0.778   1.713  0.7568 -2.7057 -0.2172
  445THF    H11 8783   5.339   0.746   1.888  3.3607 -4.1242 -0.7777
  445THF    H12 8784   5.544   0.676   1.915 -1.0660 -0.0315 -0.0550
  445THF    H13 8785   5.607   0.779   1.780  0.7068  0.2642  0.9029
  446THF     O1 8786   0.536   5.012   2.311 -0.3382  0.4224  0.1061
  446THF     C2 8787   0.396   4.986   2.290 -0.1619 -0.1983 -0.2139
  446THF     C3 8788   0.590   4.933   2.412 -0.2467  0.2598  0.3164
  446THF     H4 8789   0.370   4.985   2.185 -0.7965 -0.8185 -0.0587
  446THF     H5 8790   0.339   5.062   2.343  0.3641 -0.6700  1.0998
  446THF     H6 8791   0.673   4.871   2.379 -0.9967 -0.3345 -0.5006
  446THF     H7 8792   0.624   4.995   2.495 -2.3798 -2.0068  3.0597
  446THF     C8 8793   0.480   4.841   2.451  0.9528  0.4266 -0.0188
  446THF     C9 8794   0.373   4.846   2.350  0.2287 -0.6661  0.4300
  446THF    H10 8795   0.447   4.890   2.543  3.6952  3.2198 -0.3614
  446THF    H11 8796   0.522   4.741   2.464  0.2275  0.1616  0.3945
  446THF    H12 8797   0.386   4.780   2.264 -1.0406 -2.0130  1.2251
  446THF    H13 8798   0.270   4.832   2.384  1.2532 -0.5899  3.9834
  447THF     O1 8799   4.715   4.725   3.433  0.1926 -0.4299  0.1071
  447THF     C2 8800   4.699   4.746   3.293  0.3476 -0.0582  0.3470
  447THF     C3 8801   4.758   4.849   3.491  0.6141  0.0058 -0.0805
  447THF     H4 8802   4.632   4.669   3.256  0.5650  0.3850 -1.0287
  447THF     H5 8803   4.792   4.736   3.237  1.2672 -1.3726  2.0219
  447THF     H6 8804   4.711   4.857   3.589  3.4576 -0.3425  1.4072
  447THF     H7 8805   4.864   4.848   3.515  0.2160  3.0520  2.5424
  447THF     C8 8806   4.718   4.963   3.403 -0.5289 -0.4456  0.2349
  447THF     C9 8807   4.635   4.887   3.295 -0.6533  0.1793  0.3105
  447THF    H10 8808   4.805   5.010   3.357 -1.3862  0.4666 -0.5064
  447THF    H11 8809   4.661   5.046   3.444 -2.3773 -0.8792 -1.3325
  447THF    H12 8810   4.533   4.878   3.335 -0.5306 -2.3546  0.2114
  447THF    H13 8811   4.634   4.941   3.201  0.3331  1.0725  0.7944
  448THF     O1 8812   5.403   4.498   3.184  0.2004 -0.0939 -0.2163
  448THF     C2 8813   5.274   4.518   3.131 -0.2845  0.1281  0.0645
  448THF     C3 8814   5.476   4.438   3.077 -0.1420 -0.7062 -0.2311
  448THF     H4 8815   5.214   4.589   3.188  1.8714  2.3730 -0.2638
  448THF     H5 8816   5.231   4.419   3.116  2.1843 -0.8444 -1.0994
  448THF     H6 8817   5.585   4.443   3.091 -0.3732  0.1627  1.5924
  448THF     H7 8818   5.455   4.332   3.068 -1.0192 -0.5713  0.1860
  448THF     C8 8819   5.436   4.515   2.958 -0.4278  0.3180  0.0446
  448THF     C9 8820   5.304   4.571   3.000 -0.3681 -0.3955  0.2929
  448THF    H10 8821   5.425   4.448   2.873 -2.7813 -0.1668  0.6415
  448THF    H11 8822   5.515   4.586   2.937  1.3270 -1.2137  1.1875
  448THF    H12 8823   5.304   4.680   3.004 -0.2582 -0.4190  1.0795
  448THF    H13 8824   5.225   4.548   2.928 -3.0596  1.3819  2.4936
  449THF     O1 8825   0.359   5.500   3.790 -0.3909 -0.6372 -0.5044
  449THF     C2 8826   0.388   5.633   3.750 -0.0130 -0.3233  0.3335
  449THF     C3 8827   0.467   5.417   3.751 -0.5757 -0.1448 -0.0549
  449THF     H4 8828   0.426   5.693   3.832  0.7375 -0.0773 -0.1907
  449THF     H5 8829   0.292   5.666   3.710  0.5702  1.2992  0.2186
  449THF     H6 8830   0.549   5.426   3.822 -0.6953  1.3949 -0.0864
  449THF     H7 8831   0.442   5.311   3.746 -0.1802 -0.2161 -0.7886
  449THF     C8 8832   0.507   5.468   3.614 -0.6092 -0.1631 -0.5462
  449THF     C9 8833   0.489   5.618   3.634  0.6283 -0.7120 -0.2919
  449THF    H10 8834   0.432   5.431   3.544 -1.1350  2.2356 -1.3351
  449THF    H11 8835   0.605   5.425   3.594 -0.7842 -0.4249 -0.8430
  449THF    H12 8836   0.578   5.674   3.664  0.2324  0.6042 -1.4653
  449THF    H13 8837   0.457   5.673   3.545 -0.6531 -0.6600  0.1842
  450THF     O1 8838   1.823   4.459   3.816 -0.0938  0.3393 -0.1190
  450THF     C2 8839   1.895   4.532   3.716  1.0695  1.1083  0.2119
  450THF     C3 8840   1.687   4.457   3.784  0.1853 -0.1551 -0.3546
  450THF     H4 8841   1.995   4.490   3.708  0.4071 -1.3798  3.1173
  450THF     H5 8842   1.913   4.631   3.757  1.9663  0.6872  0.8574
  450THF     H6 8843   1.672   4.350   3.768 -1.3066  0.0049 -0.1585
  450THF     H7 8844   1.633   4.500   3.868  0.5806  0.4764 -0.4177
  450THF     C8 8845   1.668   4.540   3.662 -0.4462 -0.1053 -0.8719
  450THF     C9 8846   1.807   4.521   3.594  0.0727  0.0374 -0.5164
  450THF    H10 8847   1.654   4.640   3.704 -1.1292 -0.5390 -0.0486
  450THF    H11 8848   1.586   4.519   3.593  0.8295 -0.2149 -2.4226
  450THF    H12 8849   1.811   4.429   3.536 -0.3554  0.4345 -1.1941
  450THF    H13 8850   1.822   4.604   3.525 -1.2236  0.3663 -0.4247
  451THF     O1 8851   5.281   0.606   3.399  0.0521  0.4084 -0.0665
  451THF     C2 8852   5.189   0.630   3.299  0.3269 -0.4445 -0.2004
  451THF     C3 8853   5.281   0.713   3.483 -0.0218 -0.1300  0.1325
  451THF     H4 8854   5.093   0.589   3.329  0.3156  0.1402  0.6075
  451THF     H5 8855   5.213   0.579   3.206  2.4233  1.0495 -0.5467
  451THF     H6 8856   5.199   0.707   3.555  0.8602 -1.6610  1.0765
  451THF     H7 8857   5.376   0.715   3.537 -0.0550  1.2083  0.1728
  451THF     C8 8858   5.272   0.842   3.387  0.0657 -0.2257 -0.5585
  451THF     C9 8859   5.201   0.779   3.267  0.0129  0.5946  0.3552
  451THF    H10 8860   5.371   0.874   3.355  0.1795  0.1624  0.1552
  451THF    H11 8861   5.217   0.929   3.423  0.4073 -0.1336 -0.2459
  451THF    H12 8862   5.104   0.829   3.257  0.6406  2.0329  1.0427
  451THF    H13 8863   5.259   0.801   3.178 -0.1490  0.3814  0.1959
  452THF     O1 8864   3.612   4.705   1.502 -0.5582 -0.2081  0.0972
  452THF     C2 8865   3.701   4.654   1.602 -0.7335 -0.4595  0.3240
  452THF     C3 8866   3.646   4.846   1.469 -0.1657  0.3724 -0.1695
  452THF     H4 8867   3.798   4.627   1.560  0.7697  0.9915  2.6310
  452THF     H5 8868   3.671   4.561   1.651  1.3596 -2.0182 -1.1804
  452THF     H6 8869   3.746   4.845   1.425  0.3659  2.3230  0.8884
  452THF     H7 8870   3.564   4.900   1.422 -1.3201  0.1249  1.4601
  452THF     C8 8871   3.671   4.901   1.609 -0.6519 -0.1463 -0.4965
  452THF     C9 8872   3.716   4.780   1.694  0.0764  0.0904 -0.1264
  452THF    H10 8873   3.582   4.948   1.649 -1.0406 -0.1328 -1.3510
  452THF    H11 8874   3.752   4.974   1.603  0.5995 -1.0449  3.1337
  452THF    H12 8875   3.823   4.785   1.712  0.3918 -0.2533 -1.8247
  452THF    H13 8876   3.648   4.774   1.780 -1.1395  4.3603 -0.5294
  453THF     O1 8877   1.795   5.495   1.040 -0.4655  0.3423 -0.3984
  453THF     C2 8878   1.695   5.589   1.053 -0.2200  0.7294  0.3412
  453THF     C3 8879   1.882   5.548   0.946  0.7766 -1.1936 -0.7297
  453THF     H4 8880   1.717   5.666   1.127  0.5294  0.3884  0.4914
  453THF     H5 8881   1.601   5.546   1.087 -0.0415  0.6510  0.7490
  453THF     H6 8882   1.952   5.614   0.998  0.6297 -1.3314 -0.3518
  453THF     H7 8883   1.942   5.461   0.919  1.6163 -1.3055  1.3095
  453THF     C8 8884   1.806   5.620   0.839  0.3457 -0.2865 -0.5442
  453THF     C9 8885   1.672   5.644   0.907 -0.5821  0.7800 -1.0510
  453THF    H10 8886   1.800   5.570   0.742  0.6512 -0.6573 -0.3733
  453THF    H11 8887   1.849   5.719   0.825  1.1543 -0.7064 -1.1575
  453THF    H12 8888   1.648   5.750   0.914  1.1057  1.0918  0.9699
  453THF    H13 8889   1.594   5.581   0.864  0.0347 -1.5475  0.9784
  454THF     O1 8890   0.650   2.848   2.719  0.9458 -0.1091 -0.1827
  454THF     C2 8891   0.681   2.832   2.582  0.3915  0.7258 -0.8438
  454THF     C3 8892   0.666   2.982   2.743 -0.5395  0.3651  0.1868
  454THF     H4 8893   0.650   2.733   2.549  0.8200 -0.0034  0.8502
  454THF     H5 8894   0.789   2.838   2.574  0.4108 -0.9907 -2.6887
  454THF     H6 8895   0.629   3.007   2.842  0.4376  0.3491  0.5667
  454THF     H7 8896   0.772   3.008   2.741 -0.3451 -0.4068  0.1899
  454THF     C8 8897   0.588   3.039   2.620 -0.5277  0.7161 -0.1440
  454THF     C9 8898   0.611   2.944   2.506  0.1300 -0.4442  0.1047
  454THF    H10 8899   0.608   3.145   2.600 -3.2496  1.0653 -1.4924
  454THF    H11 8900   0.482   3.048   2.645 -0.7938  1.3299 -1.4318
  454THF    H12 8901   0.521   2.911   2.454  0.0264  0.6938 -0.4717
  454THF    H13 8902   0.693   2.983   2.446  0.9856 -1.1337  0.7897
  455THF     O1 8903   5.106   3.062   4.712  0.0994  0.0961  0.6550
  455THF     C2 8904   5.114   2.928   4.669  0.1470  0.1557  0.0590
  455THF     C3 8905   5.088   3.056   4.850  0.2743 -0.6226  0.1147
  455THF     H4 8906   5.156   2.912   4.570 -2.3915 -1.3595 -0.8940
  455THF     H5 8907   5.019   2.874   4.672 -0.7159  1.6401  1.8717
  455THF     H6 8908   5.136   3.139   4.902 -0.0418 -0.3348 -0.0453
  455THF     H7 8909   4.988   3.073   4.891 -0.4999  0.1214 -1.9615
  455THF     C8 8910   5.131   2.914   4.900  0.3651 -0.1654 -0.3822
  455THF     C9 8911   5.194   2.855   4.780 -0.0715 -0.3250  0.2933
  455THF    H10 8912   5.041   2.857   4.926 -0.4529  0.3910 -1.9141
  455THF    H11 8913   5.203   2.917   4.983  0.5744 -0.0241 -0.5681
  455THF    H12 8914   5.295   2.894   4.766 -0.1488  0.2961  1.3462
  455THF    H13 8915   5.193   2.746   4.782  0.4150 -0.3465 -0.2737
  456THF     O1 8916   0.788   0.606   0.643 -0.3370  0.0428 -0.3983
  456THF     C2 8917   0.659   0.580   0.707 -0.2726  0.0087  0.1003
  456THF     C3 8918   0.818   0.501   0.554  0.0361  0.1270  0.3181
  456THF     H4 8919   0.577   0.620   0.649 -0.9898  1.3926  1.9942
  456THF     H5 8920   0.647   0.627   0.804  0.6237 -1.4919  0.9780
  456THF     H6 8921   0.798   0.517   0.448 -1.7547 -0.2406  0.5744
  456THF     H7 8922   0.924   0.485   0.573 -0.0615 -0.7805  0.1202
  456THF     C8 8923   0.733   0.383   0.593  0.2592 -0.7135  0.7947
  456THF     C9 8924   0.664   0.431   0.725 -0.0520  0.1928  0.3246
  456THF    H10 8925   0.787   0.289   0.592  0.9124 -0.4300 -2.7359
  456THF    H11 8926   0.653   0.359   0.523 -0.6982 -3.2877  2.6274
  456THF    H12 8927   0.561   0.399   0.739  0.5157 -1.5887  0.5743
  456THF    H13 8928   0.738   0.391   0.794  0.9652 -0.9155 -1.3309
  457THF     O1 8929   2.378   5.009   4.969  0.1366 -0.6262 -0.1459
  457THF     C2 8930   2.262   5.003   5.058 -0.3704 -0.0047  0.2983
  457THF     C3 8931   2.406   4.877   4.918 -0.7389 -0.1327  0.1328
  457THF     H4 8932   2.197   5.084   5.022 -0.4718 -0.1538  0.1427
  457THF     H5 8933   2.291   5.024   5.161  0.2510 -0.9175  0.3184
  457THF     H6 8934   2.454   4.869   4.820  0.1513  2.6755  0.2780
  457THF     H7 8935   2.454   4.818   4.996 -2.8525  1.1899  2.6044
  457THF     C8 8936   2.271   4.814   4.911  0.2560 -0.5088  0.4376
  457THF     C9 8937   2.203   4.868   5.038 -0.5146 -0.3215  0.9005
  457THF    H10 8938   2.290   4.707   4.916 -0.8057 -0.6638  1.4159
  457THF    H11 8939   2.220   4.840   4.818  2.0025  3.1043  0.3036
  457THF    H12 8940   2.096   4.856   5.019 -0.3632  0.5285 -0.6885
  457THF    H13 8941   2.228   4.817   5.131 -1.0150  0.4044  1.4444
  458THF     O1 8942   0.698   1.584   5.095  0.0681 -0.2773  0.1815
  458THF     C2 8943   0.558   1.586   5.092 -0.1914 -0.3145  0.1023
  458THF     C3 8944   0.744   1.588   5.230  0.3428  0.2660  0.2157
  458THF     H4 8945   0.515   1.537   5.005  0.6147 -1.3214  0.2553
  458THF     H5 8946   0.523   1.686   5.118  1.7588 -0.0220  1.7995
  458THF     H6 8947   0.849   1.560   5.240  1.4958  3.4622 -1.3395
  458THF     H7 8948   0.745   1.693   5.261  1.0162 -0.1431  1.6570
  458THF     C8 8949   0.634   1.512   5.308  0.4928  0.1294 -0.5509
  458THF     C9 8950   0.515   1.496   5.207 -0.7059 -0.5070 -0.5086
  458THF    H10 8951   0.594   1.567   5.393 -0.6379 -1.2007 -0.1791
  458THF    H11 8952   0.660   1.411   5.338 -1.0745 -0.4396 -1.0141
  458THF    H12 8953   0.512   1.391   5.179  0.7383 -0.2139 -1.9765
  458THF    H13 8954   0.416   1.517   5.245 -1.1841 -3.7096  0.2496
  459THF     O1 8955   1.462   5.254   1.653 -0.0103  0.4607 -0.4239
  459THF     C2 8956   1.444   5.393   1.684  0.1866  0.2796 -0.1163
  459THF     C3 8957   1.560   5.236   1.550  0.8737  0.0330 -0.7107
  459THF     H4 8958   1.438   5.397   1.793  0.6763  0.6968 -0.1004
  459THF     H5 8959   1.342   5.417   1.653 -1.4990 -3.4349  1.8764
  459THF     H6 8960   1.653   5.193   1.588  1.0463 -0.2764 -1.4739
  459THF     H7 8961   1.526   5.184   1.461 -0.1716 -1.0098  0.2595
  459THF     C8 8962   1.587   5.383   1.505 -0.1109  0.7181  0.5776
  459THF     C9 8963   1.560   5.471   1.622  0.0439 -0.3792  0.8049
  459THF    H10 8964   1.507   5.404   1.434 -0.6961 -0.1937  0.9430
  459THF    H11 8965   1.686   5.397   1.461 -0.0378 -1.3076 -0.0118
  459THF    H12 8966   1.639   5.469   1.697 -1.1505 -1.3959  2.0779
  459THF    H13 8967   1.524   5.567   1.585  1.1919 -1.2390 -3.0010
  460THF     O1 8968   1.892   4.224   1.733 -0.5737  0.0168  0.5894
  460THF     C2 8969   1.988   4.207   1.632  0.4672 -0.0998  0.2645
  460THF     C3 8970   1.796   4.119   1.713 -0.3363 -0.2988  0.1365
  460THF     H4 8971   2.077   4.267   1.651  0.8946 -0.8797  0.7537
  460THF     H5 8972   1.951   4.237   1.534 -0.8994 -0.1641  0.7391
  460THF     H6 8973   1.726   4.111   1.797  0.1349 -1.4998  0.4352
  460THF     H7 8974   1.742   4.132   1.619 -2.0926 -0.3385  1.0989
  460THF     C8 8975   1.891   3.998   1.696 -0.2815  0.5251  0.0955
  460THF     C9 8976   2.018   4.058   1.630  0.3388  0.1288 -0.3499
  460THF    H10 8977   1.862   3.908   1.643  1.5802  1.2596 -2.3561
  460THF    H11 8978   1.922   3.974   1.797 -0.4761  0.4373  0.1337
  460THF    H12 8979   2.100   4.041   1.699 -0.4853 -0.1020  0.6045
  460THF    H13 8980   2.043   4.022   1.531  1.3318  0.3597 -0.1929
  461THF     O1 8981   1.753   1.857   0.018  0.2004  0.6697  0.9340
  461THF     C2 8982   1.639   1.774   0.034 -0.0928 -0.1600  0.6097
  461THF     C3 8983   1.771   1.878  -0.124  0.4304 -0.3395 -0.3948
  461THF     H4 8984   1.553   1.832  -0.001 -0.6668 -1.6676 -0.5759
  461THF     H5 8985   1.630   1.739   0.137 -2.3381  1.4567  1.0402
  461THF     H6 8986   1.704   1.953  -0.166 -0.1822 -1.0052 -0.6220
  461THF     H7 8987   1.876   1.902  -0.142  0.3512 -0.7446 -1.4661
  461THF     C8 8988   1.741   1.745  -0.187 -0.2748  0.2841 -0.3526
  461THF     C9 8989   1.654   1.674  -0.081 -0.2799  0.4837 -0.0132
  461THF    H10 8990   1.833   1.687  -0.197 -0.7070 -0.2539 -1.3731
  461THF    H11 8991   1.692   1.751  -0.284  2.9495  0.7588 -2.0952
  461THF    H12 8992   1.564   1.636  -0.128 -0.1079 -0.7921  0.6426
  461THF    H13 8993   1.717   1.588  -0.056  1.3143  0.3882 -3.6983
  462THF     O1 8994   4.168   2.701   1.959  0.2452 -0.2166 -0.1178
  462THF     C2 8995   4.193   2.664   2.096 -0.4480  0.1270  0.7616
  462THF     C3 8996   4.295   2.731   1.908 -0.2670  0.3142 -0.7388
  462THF     H4 8997   4.106   2.607   2.128 -2.1293  1.1832 -1.5924
  462THF     H5 8998   4.206   2.756   2.153 -3.3408  0.0966  1.6535
  462THF     H6 8999   4.298   2.744   1.800  0.6868  1.6565 -0.5789
  462THF     H7 9000   4.326   2.825   1.954 -1.0686  0.9033 -1.3571
  462THF     C8 9001   4.381   2.613   1.949 -0.2211  0.3834 -0.2140
  462THF     C9 9002   4.338   2.591   2.091 -0.0310  0.2985  0.0516
  462THF    H10 9003   4.485   2.617   1.917 -0.2255 -0.8200 -0.4067
  462THF    H11 9004   4.335   2.534   1.890 -0.0838 -0.1539  0.3960
  462THF    H12 9005   4.342   2.491   2.133  0.7189  0.4397  0.3297
  462THF    H13 9006   4.401   2.649   2.158 -1.9708 -1.3079  3.5736
  463THF     O1 9007   1.418   5.055   5.095  0.0909  0.3513 -0.0919
  463THF     C2 9008   1.499   4.974   5.010  0.7760 -0.0841  0.4191
  463THF     C3 9009   1.293   5.004   5.103  0.0256  0.0246 -0.1837
  463THF     H4 9010   1.570   4.909   5.061 -0.3527 -2.7539 -1.1566
  463THF     H5 9011   1.554   5.031   4.934  1.9861 -0.7283  0.7868
  463THF     H6 9012   1.276   4.943   5.192  1.4430 -0.1002  0.0280
  463THF     H7 9013   1.225   5.088   5.117 -1.3089 -1.2009  1.0230
  463THF     C8 9014   1.269   4.943   4.967 -0.1455 -0.1483  0.2186
  463THF     C9 9015   1.405   4.885   4.929 -0.1269  0.1251  0.2219
  463THF    H10 9016   1.243   5.011   4.886 -0.2445 -0.3482  0.0795
  463THF    H11 9017   1.189   4.868   4.966 -1.1302  0.8665 -0.0342
  463THF    H12 9018   1.416   4.782   4.964  0.5084  0.9831  2.8548
  463THF    H13 9019   1.430   4.875   4.824  1.0152  0.8476  0.3999
  464THF     O1 9020   3.288   4.495   1.589 -0.1398  0.5372 -0.6655
  464THF     C2 9021   3.324   4.459   1.456 -0.3864  0.0066  0.7180
  464THF     C3 9022   3.284   4.640   1.598  0.5891  0.4788 -0.0443
  464THF     H4 9023   3.288   4.362   1.422  1.2551 -0.7410  0.9766
  464THF     H5 9024   3.433   4.455   1.456 -0.4047 -0.8568 -0.5131
  464THF     H6 9025   3.210   4.676   1.669  1.5974 -1.3458  2.0327
  464THF     H7 9026   3.381   4.688   1.610  2.4632 -3.3063  1.3329
  464THF     C8 9027   3.240   4.689   1.465  0.0886  0.4249  0.4846
  464THF     C9 9028   3.270   4.571   1.371  0.3487  0.0523  0.3674
  464THF    H10 9029   3.293   4.778   1.431  1.6221  0.2296  2.1968
  464THF    H11 9030   3.133   4.709   1.468  0.4229  2.3311  0.9990
  464THF    H12 9031   3.174   4.538   1.330  0.4002  1.2024 -0.7427
  464THF    H13 9032   3.336   4.591   1.287  1.3487  0.6153  1.2662
  465THF     O1 9033   5.100   1.965   0.498 -0.6552  0.2391  0.1555
  465THF     C2 9034   5.168   2.042   0.595 -1.0665 -0.5573 -0.1045
  465THF     C3 9035   4.981   2.052   0.469 -0.6690  0.4525 -0.2027
  465THF     H4 9036   5.217   2.131   0.555 -0.9498 -0.9284 -0.8026
  465THF     H5 9037   5.242   1.974   0.637 -1.0399 -0.9936 -0.8555
  465THF     H6 9038   5.007   2.128   0.396  1.0636 -0.1302 -0.2456
  465THF     H7 9039   4.903   1.988   0.428  0.1637 -0.8862  0.2228
  465THF     C8 9040   4.938   2.113   0.601  0.8252 -0.2551 -0.0081
  465THF     C9 9041   5.061   2.089   0.691  0.4472 -0.2399 -0.2598
  465THF    H10 9042   4.851   2.061   0.642  1.3524 -1.2687 -0.1562
  465THF    H11 9043   4.902   2.214   0.579  0.5744 -0.6021 -1.2553
  465THF    H12 9044   5.095   2.176   0.747  3.2142 -1.2331 -0.2557
  465THF    H13 9045   5.030   2.016   0.765 -3.5732  2.1541  0.7141
  466THF     O1 9046   5.208   3.113   0.435  0.4504 -0.2769 -0.0406
  466THF     C2 9047   5.211   3.171   0.308  0.0582  0.9542 -0.0549
  466THF     C3 9048   5.132   2.993   0.441  0.0896  0.0374  0.8939
  466THF     H4 9049   5.297   3.237   0.299  0.0559  0.8758 -0.6955
  466THF     H5 9050   5.120   3.217   0.269 -1.2813  0.9972  2.8237
  466THF     H6 9051   5.165   2.944   0.532  1.3735  0.2436  0.5561
  466THF     H7 9052   5.023   3.000   0.434 -0.0438 -1.2274  1.4834
  466THF     C8 9053   5.186   2.933   0.311  0.5206 -0.9037  0.1965
  466THF     C9 9054   5.246   3.046   0.229 -0.4133 -0.5406  0.6454
  466THF    H10 9055   5.103   2.888   0.256 -0.1847  1.5647 -0.8868
  466THF    H11 9056   5.253   2.847   0.319 -0.4406 -1.7908 -0.8983
  466THF    H12 9057   5.352   3.023   0.227 -0.5042 -1.1050  1.6696
  466THF    H13 9058   5.217   3.044   0.124 -1.3431  0.8385  0.8403
  467THF     O1 9059   0.523   2.220   4.483 -0.6155  0.2484 -0.1098
  467THF     C2 9060   0.627   2.251   4.574 -0.0410 -0.1922 -0.2926
  467THF     C3 9061   0.571   2.128   4.388 -0.4977  0.3502 -0.0912
  467THF     H4 9062   0.589   2.244   4.676  0.7079 -1.3223 -0.0734
  467THF     H5 9063   0.673   2.348   4.555 -0.9121  0.2946 -0.0028
  467THF     H6 9064   0.493   2.074   4.333  0.9622 -1.6149 -0.3686
  467THF     H7 9065   0.635   2.189   4.323 -1.1612  0.3571 -0.7522
  467THF     C8 9066   0.665   2.035   4.468  0.5194 -0.4370  0.4626
  467THF     C9 9067   0.734   2.133   4.564  0.0910 -0.3818 -0.8461
  467THF    H10 9068   0.727   1.966   4.411 -1.5981 -0.5095 -1.9069
  467THF    H11 9069   0.591   1.982   4.528  0.0222 -0.9255 -0.5590
  467THF    H12 9070   0.761   2.089   4.660 -0.2329 -0.7440 -0.9206
  467THF    H13 9071   0.826   2.156   4.510 -0.7383  1.1233 -1.6771
  468THF     O1 9072   3.527   4.812   0.275 -0.0046 -0.2812  0.3710
  468THF     C2 9073   3.496   4.768   0.150  0.1487 -0.1969  0.6491
  468THF     C3 9074   3.493   4.945   0.294 -0.4943 -0.0023  0.4408
  468THF     H4 9075   3.390   4.743   0.138 -0.6513  2.6536  0.9049
  468THF     H5 9076   3.547   4.680   0.112  0.0158 -0.4567  1.0712
  468THF     H6 9077   3.385   4.951   0.308 -0.8853 -2.2767 -1.0279
  468THF     H7 9078   3.558   4.994   0.366  0.7689 -0.6489 -0.2204
  468THF     C8 9079   3.532   5.009   0.157 -0.3847 -0.1783  0.6084
  468THF     C9 9080   3.523   4.893   0.059 -0.6815  0.2351 -0.6008
  468THF    H10 9081   3.635   5.040   0.177 -1.2981  2.7018  1.3061
  468THF    H11 9082   3.469   5.092   0.125  1.3355  0.2883 -1.8167
  468THF    H12 9083   3.430   4.896   0.003 -0.9693 -3.4679 -0.5298
  468THF    H13 9084   3.609   4.877  -0.006  0.1187 -2.1687  0.9240
  469THF     O1 9085   0.970   0.229   0.046 -0.3567 -0.1079  0.5154
  469THF     C2 9086   0.850   0.304   0.088  0.2744 -0.2777  0.2648
  469THF     C3 9087   1.001   0.150   0.157  0.5742  0.2960  0.3545
  469THF     H4 9088   0.787   0.332   0.004  0.7858  0.5928  0.1674
  469THF     H5 9089   0.883   0.400   0.128 -1.7464  1.5020 -2.0658
  469THF     H6 9090   1.023   0.048   0.127 -2.0083  0.4980 -2.7251
  469THF     H7 9091   1.095   0.191   0.194 -0.1660  1.5970  0.8530
  469THF     C8 9092   0.891   0.154   0.266 -0.4643 -0.1222  0.4019
  469THF     C9 9093   0.772   0.214   0.185  0.3292 -0.1898  0.3142
  469THF    H10 9094   0.925   0.213   0.351  2.2006 -1.0020  0.0552
  469THF    H11 9095   0.876   0.049   0.294  0.0877 -0.8321 -1.7615
  469THF    H12 9096   0.717   0.145   0.121  1.1685 -1.3705  0.8404
  469THF    H13 9097   0.704   0.266   0.252 -0.0427 -2.5298  1.8543
  470THF     O1 9098   4.061   0.995   3.866  0.0440 -0.1359  0.0154
  470THF     C2 9099   4.141   1.040   3.975  0.3016 -0.6875  0.0201
  470THF     C3 9100   4.126   0.887   3.801  0.1528 -0.2589 -0.7865
  470THF     H4 9101   4.093   1.119   4.032 -1.0394  0.4557 -2.5189
  470THF     H5 9102   4.231   1.079   3.927 -1.1935  2.0377 -0.7447
  470THF     H6 9103   4.063   0.835   3.728  2.0695 -0.4827 -2.3879
  470THF     H7 9104   4.209   0.931   3.746  1.0119 -0.8662 -0.0122
  470THF     C8 9105   4.172   0.805   3.929 -0.4075  0.0010 -0.2520
  470THF     C9 9106   4.174   0.905   4.041  1.0649  0.0209  0.2857
  470THF    H10 9107   4.271   0.762   3.913 -0.8395 -2.3627  2.5513
  470THF    H11 9108   4.094   0.731   3.945 -0.8836  0.4818 -0.3588
  470THF    H12 9109   4.090   0.880   4.106  2.1238  0.4868  1.8920
  470THF    H13 9110   4.266   0.912   4.099  0.5987  4.4711  0.8469
  471THF     O1 9111   2.285   0.374   0.883 -0.0285 -0.3295 -0.0712
  471THF     C2 9112   2.331   0.398   0.757 -0.1623 -0.1302 -0.2382
  471THF     C3 9113   2.142   0.352   0.875 -0.2935 -0.4299  0.7347
  471THF     H4 9114   2.435   0.369   0.743 -0.1069 -0.0880  0.0897
  471THF     H5 9115   2.311   0.499   0.721 -1.4876  0.2850  1.5132
  471THF     H6 9116   2.098   0.322   0.969 -0.2664  0.2771  0.9808
  471THF     H7 9117   2.102   0.449   0.843 -2.3259 -1.5760 -0.4248
  471THF     C8 9118   2.137   0.254   0.766  0.2081 -0.2152 -0.3718
  471THF     C9 9119   2.243   0.302   0.675 -0.3010 -0.1318  0.0524
  471THF    H10 9120   2.040   0.247   0.717  0.3614  1.7996 -1.0729
  471THF    H11 9121   2.164   0.153   0.798 -0.4548 -0.5103 -0.7350
  471THF    H12 9122   2.303   0.222   0.632 -0.1977  0.3363 -0.6987
  471THF    H13 9123   2.211   0.361   0.589  0.2823 -1.6412 -1.2345
  472THF     O1 9124   1.447   1.144   5.390 -0.1705 -0.3377  0.3742
  472THF     C2 9125   1.406   1.051   5.292  0.1036  0.0829 -0.2905
  472THF     C3 9126   1.356   1.253   5.406 -0.1145 -0.2234 -0.0354
  472THF     H4 9127   1.428   0.945   5.304  0.6116  0.0029 -1.7564
  472THF     H5 9128   1.444   1.082   5.195 -1.0821 -0.0490 -0.8061
  472THF     H6 9129   1.366   1.296   5.505  0.4217  0.9202 -0.5685
  472THF     H7 9130   1.395   1.325   5.334 -1.1407  2.1344  1.6359
  472THF     C8 9131   1.221   1.184   5.375  0.5037  0.8310  0.0555
  472THF     C9 9132   1.258   1.067   5.278  0.7583 -0.2785  0.2933
  472THF    H10 9133   1.144   1.251   5.336 -2.4068 -1.3343  1.6056
  472THF    H11 9134   1.181   1.149   5.471 -0.6184  3.4630  0.6429
  472THF    H12 9135   1.209   0.969   5.288 -1.0334  0.6063  0.6551
  472THF    H13 9136   1.239   1.090   5.173 -0.0565  2.6893  0.9893
  473THF     O1 9137   4.379   1.830   1.422 -0.5217 -0.6478 -0.2976
  473THF     C2 9138   4.311   1.807   1.298 -0.0649  0.0351  0.1547
  473THF     C3 9139   4.380   1.709   1.503 -0.3234  0.1914  0.4114
  473THF     H4 9140   4.347   1.877   1.223 -0.5213 -0.4706 -0.5529
  473THF     H5 9141   4.208   1.841   1.314  0.1377  1.6419 -1.5438
  473THF     H6 9142   4.485   1.692   1.527 -0.1069  0.3976 -0.3570
  473THF     H7 9143   4.313   1.724   1.588 -1.8716 -2.8344 -0.1178
  473THF     C8 9144   4.319   1.598   1.416  0.4337 -0.0917 -0.1116
  473THF     C9 9145   4.328   1.657   1.271 -0.3619  0.2054 -0.3794
  473THF    H10 9146   4.214   1.597   1.444  0.3692  1.4437 -0.1718
  473THF    H11 9147   4.358   1.498   1.434  0.6412 -0.2673 -1.4419
  473THF    H12 9148   4.424   1.634   1.224  0.8543  3.6009  0.1314
  473THF    H13 9149   4.248   1.617   1.210  1.5448 -2.2854 -1.3883
  474THF     O1 9150   0.533   3.617   0.789 -0.3624  0.3800  0.0157
  474THF     C2 9151   0.421   3.567   0.723 -0.1194 -0.5785  0.2452
  474THF     C3 9152   0.482   3.720   0.871  0.2389 -0.9718  0.0143
  474THF     H4 9153   0.356   3.518   0.795 -0.7800  0.3599  0.2873
  474THF     H5 9154   0.441   3.500   0.638  0.9468  1.0669 -0.8607
  474THF     H6 9155   0.412   3.678   0.943  0.7355 -1.5145  0.1873
  474THF     H7 9156   0.569   3.771   0.913 -0.0004 -0.6514  0.1232
  474THF     C8 9157   0.421   3.808   0.763  0.5304  0.5041  0.3306
  474THF     C9 9158   0.359   3.693   0.673 -0.4222 -0.0023  0.1843
  474THF    H10 9159   0.495   3.868   0.710 -0.6660  1.9124  0.1824
  474THF    H11 9160   0.337   3.869   0.798 -2.4274 -2.6753 -0.5972
  474THF    H12 9161   0.250   3.694   0.679 -0.4547  0.2664 -0.3648
  474THF    H13 9162   0.385   3.716   0.569 -0.0708  0.6537  0.4118
  475THF     O1 9163   3.179   0.022   0.406  0.0669 -0.3691 -0.0693
  475THF     C2 9164   3.249   0.116   0.489 -0.0143 -0.2686  0.0287
  475THF     C3 9165   3.242  -0.098   0.435  0.2714 -0.3885 -0.0193
  475THF     H4 9166   3.200   0.213   0.494 -0.0703 -0.1987 -1.3741
  475THF     H5 9167   3.339   0.125   0.429 -1.6885 -1.1954 -2.8050
  475THF     H6 9168   3.186  -0.184   0.397  2.8930 -1.3029 -2.2027
  475THF     H7 9169   3.337  -0.097   0.380  0.3414 -0.6891  0.0938
  475THF     C8 9170   3.269  -0.097   0.585  0.4226  0.1836  0.2209
  475THF     C9 9171   3.268   0.047   0.624  0.4763 -0.3776  0.4068
  475THF    H10 9172   3.368  -0.141   0.593  1.4627  2.5410  1.3453
  475THF    H11 9173   3.184  -0.149   0.630 -0.8856  3.0944  1.3964
  475THF    H12 9174   3.181   0.068   0.686 -2.0050  2.0863 -3.5165
  475THF    H13 9175   3.357   0.089   0.670  1.5543 -0.4594 -1.5036
  476THF     O1 9176   0.544   2.061   2.017 -0.0999 -0.8948  0.4308
  476THF     C2 9177   0.422   2.089   2.092  0.4004  0.0089  0.4120
  476THF     C3 9178   0.505   2.003   1.896 -0.3461  0.2821  0.2050
  476THF     H4 9179   0.382   2.181   2.051  0.0714 -1.3287 -2.4956
  476THF     H5 9180   0.462   2.096   2.193  0.6300  1.1330  0.2548
  476THF     H6 9181   0.497   2.072   1.812  0.9602 -1.0977 -1.1298
  476THF     H7 9182   0.577   1.929   1.861  1.3493  1.6040  0.7867
  476THF     C8 9183   0.371   1.938   1.916  0.0443 -0.4477 -0.6550
  476THF     C9 9184   0.327   1.968   2.059 -0.1975 -0.1388 -0.1401
  476THF    H10 9185   0.376   1.832   1.889  1.2342 -0.0075 -2.3343
  476THF    H11 9186   0.303   1.983   1.844 -0.1030 -0.9359 -0.8259
  476THF    H12 9187   0.222   1.997   2.061 -1.0753 -2.9506 -0.6973
  476THF    H13 9188   0.356   1.894   2.134  0.6633  0.5123  0.1895
  477THF     O1 9189   0.523   1.186   3.232  0.0664 -0.0455 -0.6048
  477THF     C2 9190   0.558   1.144   3.099 -0.1762  0.8963 -0.0027
  477THF     C3 9191   0.610   1.108   3.314  0.1842 -0.1553  0.5491
  477THF     H4 9192   0.653   1.176   3.056 -0.0204 -2.2530 -2.3184
  477THF     H5 9193   0.479   1.188   3.038 -0.2404  0.0819 -0.5199
  477THF     H6 9194   0.710   1.150   3.308  0.0492 -0.0117 -1.0250
  477THF     H7 9195   0.590   1.102   3.421 -1.5906 -0.5212  0.2434
  477THF     C8 9196   0.609   0.967   3.257  0.1918 -0.3501  0.5366
  477THF     C9 9197   0.560   0.993   3.104  0.4313 -0.6515 -0.7451
  477THF    H10 9198   0.535   0.910   3.312  0.4614 -0.1100  1.1509
  477THF    H11 9199   0.707   0.919   3.258  1.9444  2.9462  0.5136
  477THF    H12 9200   0.631   0.944   3.036  1.3270 -3.1623  1.8059
  477THF    H13 9201   0.461   0.952   3.086 -0.1431  0.2731  0.2081
  478THF     O1 9202   4.476   4.928   5.362 -0.1016 -0.1670  0.4037
  478THF     C2 9203   4.549   4.901   5.246  0.1037  0.4425  0.1725
  478THF     C3 9204   4.416   5.054   5.338  0.0591 -0.2355 -0.4910
  478THF     H4 9205   4.596   4.802   5.243 -0.7115  0.0653 -0.4137
  478THF     H5 9206   4.634   4.970   5.245 -0.8155  1.6102  0.8453
  478THF     H6 9207   4.339   5.080   5.411 -0.5929  0.3063 -1.3441
  478THF     H7 9208   4.494   5.129   5.350  0.6469 -0.0276 -4.2834
  478THF     C8 9209   4.378   5.046   5.188 -0.6893  0.3596 -0.4406
  478THF     C9 9210   4.460   4.932   5.126  0.5321  0.0915 -0.1364
  478THF    H10 9211   4.386   5.146   5.146 -0.6933  0.0948 -1.0796
  478THF    H11 9212   4.273   5.016   5.192 -0.2364 -1.2621  0.2602
  478THF    H12 9213   4.392   4.848   5.112 -2.0059  2.1196 -0.7976
  478THF    H13 9214   4.508   4.965   5.034  0.2594  0.7340 -0.0575
  479THF     O1 9215   4.558   2.915   2.629  0.1639  0.0580  0.6247
  479THF     C2 9216   4.650   2.877   2.530 -0.3080  0.4702 -0.0357
  479THF     C3 9217   4.428   2.908   2.581 -0.3106  0.1970  0.0234
  479THF     H4 9218   4.748   2.847   2.569 -0.9534 -0.5612  0.8693
  479THF     H5 9219   4.669   2.967   2.471  1.8488 -1.0076 -1.7438
  479THF     H6 9220   4.359   2.877   2.660 -0.0624  0.2524  0.2634
  479THF     H7 9221   4.402   3.010   2.552 -1.8673 -0.1420  0.1248
  479THF     C8 9222   4.429   2.810   2.466  0.3203 -0.3559 -0.0736
  479THF     C9 9223   4.576   2.765   2.458  0.4627 -0.3364 -0.0992
  479THF    H10 9224   4.409   2.855   2.369 -1.5262  0.1673  0.5221
  479THF    H11 9225   4.364   2.723   2.481 -0.2865  0.0948 -0.0765
  479THF    H12 9226   4.585   2.672   2.513 -0.6050 -0.8286 -0.7384
  479THF    H13 9227   4.613   2.741   2.358 -0.4433 -2.2077 -0.0176
  480THF     O1 9228   4.451   2.628   2.783  0.0540  0.2949 -0.3541
  480THF     C2 9229   4.590   2.628   2.825 -0.1344  0.2586  0.6500
  480THF     C3 9230   4.380   2.548   2.879 -0.4144 -1.2909  0.4830
  480THF     H4 9231   4.627   2.731   2.825 -1.1200  0.6567 -1.1042
  480THF     H5 9232   4.646   2.572   2.750  0.6594  2.2110 -0.3168
  480THF     H6 9233   4.277   2.580   2.895  0.7381  2.4540  1.5612
  480THF     H7 9234   4.378   2.442   2.857 -1.5522 -1.4716  1.3390
  480THF     C8 9235   4.462   2.560   3.006 -0.3282  0.3968 -0.7442
  480THF     C9 9236   4.605   2.550   2.960  0.4609  0.2425 -0.1645
  480THF    H10 9237   4.442   2.487   3.085 -0.9290  0.8618 -0.4511
  480THF    H11 9238   4.446   2.660   3.045  0.7651  0.4785 -0.4751
  480THF    H12 9239   4.674   2.604   3.025  0.0082 -0.7244  1.1744
  480THF    H13 9240   4.632   2.444   2.953  2.1975  0.3099  3.4091
  481THF     O1 9241   2.761   2.489   0.663 -1.0336  0.2317 -0.0730
  481THF     C2 9242   2.860   2.577   0.705  0.0499 -0.4632 -0.0752
  481THF     C3 9243   2.644   2.563   0.637 -0.2466  0.1060  0.7148
  481THF     H4 9244   2.964   2.545   0.714 -0.3537 -1.2503  3.2246
  481THF     H5 9245   2.852   2.595   0.812  0.1851 -0.9455  0.0162
  481THF     H6 9246   2.569   2.506   0.582 -0.6003  1.3852 -0.1698
  481THF     H7 9247   2.587   2.597   0.723 -0.4323  0.6982  0.3603
  481THF     C8 9248   2.697   2.690   0.570  0.4608 -0.0433 -0.0069
  481THF     C9 9249   2.837   2.707   0.630 -0.1882 -0.0367  0.0779
  481THF    H10 9250   2.634   2.775   0.592  0.6703 -0.0627  0.6875
  481THF    H11 9251   2.696   2.680   0.461 -0.9283  0.5754 -0.0633
  481THF    H12 9252   2.901   2.729   0.545  0.2470 -0.9302  0.1555
  481THF    H13 9253   2.823   2.787   0.702 -1.2304 -0.9029  0.8919
  482THF     O1 9254   5.361   2.570   1.995  0.5873 -0.1051 -0.1733
  482THF     C2 9255   5.429   2.647   2.093 -0.3693 -0.1693  0.4432
  482THF     C3 9256   5.222   2.569   2.023  0.0821 -0.1803  0.4580
  482THF     H4 9257   5.426   2.755   2.079  0.2037 -0.2760 -0.6064
  482THF     H5 9258   5.537   2.630   2.095 -0.1272  0.8490 -1.2683
  482THF     H6 9259   5.171   2.661   1.992 -0.4105 -0.2795  0.9461
  482THF     H7 9260   5.160   2.489   1.982  3.5700 -2.7571 -0.2010
  482THF     C8 9261   5.218   2.557   2.176 -0.3829 -0.4172  0.0846
  482THF     C9 9262   5.353   2.612   2.216  0.6696  0.3731 -0.8407
  482THF    H10 9263   5.221   2.452   2.205  0.8616 -0.1375  1.0428
  482THF    H11 9264   5.126   2.600   2.216 -0.2450 -0.6508  0.6489
  482THF    H12 9265   5.325   2.695   2.282  0.0653 -0.9239  0.5780
  482THF    H13 9266   5.409   2.545   2.281  2.0679  1.1831 -1.1591
  483THF     O1 9267   1.343   0.753   0.692  0.4776 -0.1964 -0.4385
  483THF     C2 9268   1.329   0.653   0.794  0.4189 -0.1002  0.8028
  483THF     C3 9269   1.274   0.869   0.748  0.4000  0.5282 -0.1627
  483THF     H4 9270   1.422   0.656   0.851  0.1445  0.3382  1.2326
  483THF     H5 9271   1.313   0.558   0.742  1.0483 -0.1055  0.6057
  483THF     H6 9272   1.324   0.913   0.835 -0.1152 -0.2527  0.5425
  483THF     H7 9273   1.271   0.957   0.684 -0.3280  0.1106 -0.7099
  483THF     C8 9274   1.148   0.815   0.821  0.4277 -0.4864  0.4038
  483THF     C9 9275   1.211   0.693   0.886  0.8616  0.2729 -0.0700
  483THF    H10 9276   1.066   0.799   0.751  0.4612  1.3665 -0.1057
  483THF    H11 9277   1.113   0.886   0.896  0.7682 -1.8494  1.9179
  483THF    H12 9278   1.226   0.708   0.993 -2.6811 -0.0463  0.5738
  483THF    H13 9279   1.126   0.626   0.876  0.5403  0.7474 -0.5799
  484THF     O1 9280   1.680   1.309   0.153  0.4045  0.6248  1.0238
  484THF     C2 9281   1.711   1.281   0.019 -0.1161 -1.1305  0.6646
  484THF     C3 9282   1.804   1.337   0.221  0.1980 -0.6974  0.2107
  484THF     H4 9283   1.716   1.365  -0.050 -0.2636 -1.6177  0.0533
  484THF     H5 9284   1.630   1.218  -0.018  0.8142 -2.0859  0.1990
  484THF     H6 9285   1.837   1.436   0.188  1.6354 -0.7606  1.3525
  484THF     H7 9286   1.796   1.337   0.329  0.3738 -1.3402  0.2248
  484THF     C8 9287   1.893   1.229   0.170  0.7872  0.6813  0.1207
  484THF     C9 9288   1.838   1.212   0.026  0.3546 -0.1906 -0.5376
  484THF    H10 9289   1.885   1.135   0.225 -2.2772 -1.1243 -3.0175
  484THF    H11 9290   1.998   1.258   0.169  0.2492  2.8253 -0.3547
  484THF    H12 9291   1.898   1.262  -0.051 -1.0138  0.2758 -1.3334
  484THF    H13 9292   1.827   1.105   0.006 -0.0216 -0.1741 -0.4130
  485THF     O1 9293   3.118   2.371   2.308 -0.3642 -0.4028  0.1224
  485THF     C2 9294   3.183   2.313   2.419  0.2076  0.7330  0.0993
  485THF     C3 9295   3.153   2.507   2.282  0.0084 -0.2742  0.7821
  485THF     H4 9296   3.197   2.206   2.404  1.8957  0.9950 -0.4653
  485THF     H5 9297   3.130   2.331   2.512  0.3866  0.2436  0.2998
  485THF     H6 9298   3.172   2.520   2.175 -1.1343  0.3432  0.6383
  485THF     H7 9299   3.087   2.582   2.325  0.7494 -0.1827  1.8104
  485THF     C8 9300   3.281   2.530   2.371  0.7319  0.6764  0.4889
  485THF     C9 9301   3.317   2.386   2.410 -0.2689 -0.1823 -0.0839
  485THF    H10 9302   3.257   2.587   2.461 -1.6596  0.6593 -0.0655
  485THF    H11 9303   3.350   2.580   2.303  0.1354  0.0245 -0.6328
  485THF    H12 9304   3.364   2.343   2.321 -1.6260 -0.7257 -0.5632
  485THF    H13 9305   3.385   2.389   2.496 -0.7342  1.7002  0.2518
  486THF     O1 9306   4.542   3.127   5.020  0.2084 -0.1493  0.3282
  486THF     C2 9307   4.625   3.019   5.000 -0.4176  0.3189 -0.8292
  486THF     C3 9308   4.482   3.114   5.150  0.7507  0.1264 -0.2847
  486THF     H4 9309   4.695   3.039   4.919  1.0064  1.4041  0.6088
  486THF     H5 9310   4.567   2.932   4.969 -0.5594  0.0212  0.2372
  486THF     H6 9311   4.449   3.213   5.182 -1.3288 -0.6921  0.2354
  486THF     H7 9312   4.396   3.048   5.156  2.4130 -2.2045 -0.7947
  486THF     C8 9313   4.602   3.058   5.230  0.2052  0.1065 -0.1763
  486THF     C9 9314   4.684   2.984   5.133  0.0969 -0.0698 -0.2508
  486THF    H10 9315   4.566   2.994   5.310  1.8415 -1.9359 -0.9638
  486THF    H11 9316   4.659   3.135   5.282  0.0509  0.0790  0.0308
  486THF    H12 9317   4.787   3.019   5.135  0.0535  0.0975 -0.8062
  486THF    H13 9318   4.693   2.877   5.152 -2.0581 -0.2382  0.1200
  487THF     O1 9319   4.390   3.320   0.585  0.2413  0.1810  0.2602
  487THF     C2 9320   4.312   3.393   0.684  0.4383 -0.0470  0.1781
  487THF     C3 9321   4.336   3.339   0.459  0.1850  0.5078  0.7144
  487THF     H4 9322   4.386   3.431   0.755  3.0992 -0.8487 -2.0062
  487THF     H5 9323   4.247   3.322   0.736  0.1403 -0.4186 -0.6922
  487THF     H6 9324   4.401   3.316   0.375 -1.6183 -2.7175 -0.0015
  487THF     H7 9325   4.245   3.279   0.468 -1.5417  3.0892  1.4316
  487THF     C8 9326   4.290   3.482   0.468  0.0070 -0.9563 -0.2162
  487THF     C9 9327   4.241   3.508   0.608 -0.1869 -0.6185 -0.1147
  487THF    H10 9328   4.212   3.495   0.392 -0.2960 -1.2323  0.0466
  487THF    H11 9329   4.373   3.547   0.440 -0.2933 -0.0622  0.9306
  487THF    H12 9330   4.252   3.607   0.652 -4.9915  0.2328 -0.3581
  487THF    H13 9331   4.133   3.496   0.607 -0.5679  2.2251  0.0151
  488THF     O1 9332   3.219   3.095   1.651 -0.4343 -0.0601 -0.0635
  488THF     C2 9333   3.300   3.193   1.577 -0.7261  0.3239 -0.2616
  488THF     C3 9334   3.102   3.157   1.703  0.3922  0.0223  0.8420
  488THF     H4 9335   3.363   3.151   1.499  1.4877 -0.9361  2.0573
  488THF     H5 9336   3.374   3.238   1.644 -0.1395 -0.0360 -0.6621
  488THF     H6 9337   3.023   3.089   1.736 -0.2634  1.3523  2.1060
  488THF     H7 9338   3.121   3.229   1.782 -1.5311 -0.0012  1.3755
  488THF     C8 9339   3.058   3.232   1.579 -0.2601 -0.5561 -0.4453
  488THF     C9 9340   3.193   3.286   1.525  0.6713 -0.1498  0.2654
  488THF    H10 9341   2.983   3.308   1.600  1.3027  0.5848  1.3977
  488THF    H11 9342   3.016   3.172   1.498  1.7472  1.2668 -3.0179
  488THF    H12 9343   3.199   3.293   1.417  0.7875 -1.8476  0.1325
  488THF    H13 9344   3.205   3.385   1.570 -0.1490  0.1548 -0.1638
  489THF     O1 9345   1.262   1.590   0.913  0.2272 -0.1689  0.0477
  489THF     C2 9346   1.242   1.712   0.832  0.1430  0.1943 -0.7539
  489THF     C3 9347   1.136   1.567   0.975  0.0882 -0.0733  0.3830
  489THF     H4 9348   1.205   1.703   0.730  0.8194  0.1320 -1.0038
  489THF     H5 9349   1.342   1.755   0.838 -0.4759  1.5538  0.3354
  489THF     H6 9350   1.069   1.502   0.920 -0.3786  1.7843 -1.3649
  489THF     H7 9351   1.151   1.521   1.072  1.2192 -0.1735  0.1793
  489THF     C8 9352   1.077   1.704   1.000 -0.6019 -0.2781 -0.4464
  489THF     C9 9353   1.154   1.802   0.925 -0.3781 -1.4236 -0.6764
  489THF    H10 9354   1.065   1.737   1.103  0.2147 -0.5076 -0.2710
  489THF    H11 9355   0.976   1.702   0.957 -1.5086 -0.4773  1.5646
  489THF    H12 9356   1.104   1.886   0.878  0.2582  0.5039  1.8400
  489THF    H13 9357   1.222   1.844   1.000 -1.1074 -0.8084 -0.3420
  490THF     O1 9358   0.220   5.497   4.804  0.2361  0.2125 -0.4571
  490THF     C2 9359   0.086   5.516   4.763  0.2638 -0.7463  0.1851
  490THF     C3 9360   0.305   5.606   4.766  0.0522  0.2207  0.5744
  490THF     H4 9361   0.013   5.462   4.823 -0.3150  0.4066  0.5608
  490THF     H5 9362   0.095   5.508   4.655  2.8402  0.7973  0.1909
  490THF     H6 9363   0.378   5.628   4.844 -0.7385  2.0448  0.8315
  490THF     H7 9364   0.340   5.595   4.663 -1.1519  0.3559  0.1377
  490THF     C8 9365   0.208   5.729   4.759  0.4786 -0.0485  0.0139
  490THF     C9 9366   0.073   5.670   4.773  0.0738  0.1976  0.1013
  490THF    H10 9367   0.231   5.783   4.667  0.4514  0.6219  0.3994
  490THF    H11 9368   0.236   5.802   4.834  0.6357  1.4702 -1.4757
  490THF    H12 9369   0.032   5.718   4.862  1.4949 -0.7473  1.2960
  490THF    H13 9370   0.013   5.703   4.688 -2.3838 -0.3864  1.4992
  491THF     O1 9371   4.226   3.015   4.160  0.0473 -0.3390  0.4253
  491THF     C2 9372   4.200   2.940   4.043  0.1313  0.2247  0.2298
  491THF     C3 9373   4.366   3.023   4.172  0.1531  0.1488  0.3312
  491THF     H4 9374   4.202   2.999   3.951 -2.1590  0.5348  0.3296
  491THF     H5 9375   4.098   2.907   4.058 -0.0971 -0.5575 -2.5267
  491THF     H6 9376   4.417   3.075   4.091  2.6511 -0.9109  1.1332
  491THF     H7 9377   4.399   3.072   4.264 -0.5983 -0.4151  0.9207
  491THF     C8 9378   4.397   2.870   4.159 -0.1736  0.4556  0.5531
  491THF     C9 9379   4.317   2.833   4.033 -0.0389  0.3155  0.6132
  491THF    H10 9380   4.362   2.814   4.245  1.8353 -2.1289 -0.2049
  491THF    H11 9381   4.502   2.843   4.151  0.2634  2.3647 -1.0683
  491THF    H12 9382   4.370   2.847   3.939  0.0923 -1.4979  0.3765
  491THF    H13 9383   4.287   2.728   4.026 -1.0330  0.5783  0.7814
  492THF     O1 9384   2.874   4.965   5.003 -0.2215 -0.4125 -0.2676
  492THF     C2 9385   2.936   4.840   5.033 -0.0503 -0.7471 -0.3439
  492THF     C3 9386   2.766   4.948   4.916 -0.2951  0.3006  0.0882
  492THF     H4 9387   2.974   4.834   5.135 -0.8516  0.7212  0.0705
  492THF     H5 9388   3.013   4.835   4.956 -0.3783 -0.8243 -0.6713
  492THF     H6 9389   2.675   4.968   4.973 -0.4995  0.1896 -0.1972
  492THF     H7 9390   2.776   5.011   4.827 -1.1317  0.4526  0.0908
  492THF     C8 9391   2.767   4.801   4.868 -0.2442 -0.1520 -0.5234
  492THF     C9 9392   2.821   4.750   4.999  0.1300 -0.3779  0.2489
  492THF    H10 9393   2.836   4.792   4.784  1.1157 -1.3384  0.6711
  492THF    H11 9394   2.666   4.761   4.856 -0.5071  0.3460 -0.0109
  492THF    H12 9395   2.746   4.773   5.075 -0.9510 -1.1954 -0.5379
  492THF    H13 9396   2.852   4.646   5.012  1.3908  0.0312  0.7027
  493THF     O1 9397   2.920   1.871   4.589 -0.2527  0.0054  0.1341
  493THF     C2 9398   2.862   1.991   4.626 -0.0725 -0.2710 -0.2476
  493THF     C3 9399   3.051   1.902   4.539 -0.2702  0.6257  0.5071
  493THF     H4 9400   2.905   2.007   4.724 -0.5715 -0.0176 -0.0638
  493THF     H5 9401   2.754   1.987   4.640 -0.2552  2.0096 -0.5829
  493THF     H6 9402   3.101   1.916   4.634 -0.0123  0.6453  0.3675
  493THF     H7 9403   3.100   1.821   4.485  2.4698  0.3570  3.1298
  493THF     C8 9404   3.032   2.026   4.452  0.0850  0.1232 -0.3261
  493THF     C9 9405   2.917   2.091   4.523 -0.3552 -0.2855 -0.2366
  493THF    H10 9406   3.008   1.992   4.352 -1.6428  0.2580  0.0109
  493THF    H11 9407   3.118   2.093   4.458 -1.5101  2.1563  1.5675
  493THF    H12 9408   2.950   2.182   4.574 -1.2620 -0.6879  1.1287
  493THF    H13 9409   2.848   2.109   4.441  1.7135 -0.4256 -2.1102
  494THF     O1 9410   1.307   3.335   1.989 -0.1495  0.2465 -1.1371
  494THF     C2 9411   1.313   3.433   1.887 -0.6496 -0.2260  0.9476
  494THF     C3 9412   1.279   3.414   2.112  0.0371  0.0183 -0.4584
  494THF     H4 9413   1.209   3.453   1.861 -0.3849  0.4183  0.3451
  494THF     H5 9414   1.364   3.394   1.798 -1.1499  0.5199  0.3188
  494THF     H6 9415   1.173   3.431   2.126  0.2339  2.4403 -1.5175
  494THF     H7 9416   1.325   3.363   2.198  4.2810  0.9105 -1.9621
  494THF     C8 9417   1.359   3.534   2.082 -0.0925 -0.3201  0.5350
  494THF     C9 9418   1.368   3.556   1.932  0.6013 -0.3040  0.0667
  494THF    H10 9419   1.455   3.548   2.132  1.1699  0.7909 -1.9841
  494THF    H11 9420   1.309   3.626   2.113  0.4453  0.9927 -2.1857
  494THF    H12 9421   1.328   3.647   1.889  3.5659  0.3396 -1.6023
  494THF    H13 9422   1.473   3.546   1.902  0.7950 -1.3679  1.0057
  495THF     O1 9423   3.951   5.202   1.825  0.0784  0.1037 -0.4276
  495THF     C2 9424   3.817   5.214   1.854  0.8757  0.2074 -0.1861
  495THF     C3 9425   3.967   5.267   1.704  0.3036 -0.6299  0.1065
  495THF     H4 9426   3.796   5.177   1.954  3.2131  0.8872  0.6069
  495THF     H5 9427   3.759   5.152   1.785  1.6550  0.5196 -1.1451
  495THF     H6 9428   4.071   5.268   1.672 -0.4261  1.3577 -2.5498
  495THF     H7 9429   3.919   5.209   1.625  0.9640 -0.4204 -0.4565
  495THF     C8 9430   3.899   5.398   1.724 -0.2345  0.3956 -0.7873
  495THF     C9 9431   3.804   5.359   1.834 -0.0925 -0.1361 -0.1318
  495THF    H10 9432   3.853   5.439   1.634 -2.3627 -0.7411 -0.2916
  495THF    H11 9433   3.961   5.482   1.755 -0.8390  0.2891  0.8341
  495THF    H12 9434   3.841   5.417   1.918  1.6683 -0.8020 -0.4061
  495THF    H13 9435   3.702   5.396   1.822 -0.1955 -0.4302 -0.1785
  496THF     O1 9436   4.581   0.188   4.940 -0.1643 -0.2261 -0.6334
  496THF     C2 9437   4.532   0.263   4.830  0.3776  0.6813 -0.4425
  496THF     C3 9438   4.712   0.151   4.903  0.2556 -0.4999  0.1964
  496THF     H4 9439   4.459   0.328   4.878  0.1034 -0.3304  0.5477
  496THF     H5 9440   4.486   0.197   4.756 -0.1280 -0.4108  0.8240
  496THF     H6 9441   4.776   0.112   4.982  1.8099  1.4557 -0.0114
  496THF     H7 9442   4.704   0.069   4.832 -3.7242 -1.3625  1.4194
  496THF     C8 9443   4.769   0.272   4.838  0.3331 -0.2429 -0.1085
  496THF     C9 9444   4.651   0.348   4.777  0.0553  0.2508  0.2980
  496THF    H10 9445   4.839   0.237   4.761 -0.9301 -1.5826 -0.7054
  496THF    H11 9446   4.832   0.333   4.902  0.1107  0.9582 -0.9932
  496THF    H12 9447   4.656   0.451   4.813  0.5972 -0.0942  1.2794
  496THF    H13 9448   4.641   0.346   4.669  1.4151 -2.6395  0.1397
  497THF     O1 9449   4.952   5.258   3.254 -0.1300  0.1347 -0.0448
  497THF     C2 9450   5.073   5.337   3.259  0.6464 -0.5929 -0.0881
  497THF     C3 9451   4.855   5.331   3.337  0.1702 -0.0199 -0.1142
  497THF     H4 9452   5.139   5.309   3.176  2.4252  2.3061  0.1851
  497THF     H5 9453   5.132   5.318   3.348 -1.4614 -1.1693  1.2416
  497THF     H6 9454   4.753   5.297   3.319  1.2465 -2.5754 -1.9513
  497THF     H7 9455   4.865   5.310   3.444  1.4867 -1.9244 -0.5775
  497THF     C8 9456   4.888   5.480   3.314 -0.5147  0.5360 -0.7562
  497THF     C9 9457   5.026   5.479   3.243  0.3791 -0.3965  1.2346
  497THF    H10 9458   4.903   5.538   3.405  2.7060 -0.9614 -0.1715
  497THF    H11 9459   4.819   5.545   3.260  0.1474  1.3258 -0.6753
  497THF    H12 9460   5.018   5.500   3.136 -0.5934  2.6696  1.7952
  497THF    H13 9461   5.102   5.549   3.277  1.3219 -1.3285  1.0957
  498THF     O1 9462   2.543   3.121   4.636 -0.3304  0.2889  0.4752
  498THF     C2 9463   2.543   3.064   4.505  0.9907 -0.4490  0.2157
  498THF     C3 9464   2.552   3.022   4.730  0.3145  0.1674 -0.0549
  498THF     H4 9465   2.566   3.135   4.425  3.5275 -0.5909  0.7242
  498THF     H5 9466   2.436   3.049   4.489  0.6774 -0.1251  1.8466
  498THF     H6 9467   2.596   3.062   4.821  1.0650  0.3806 -0.5001
  498THF     H7 9468   2.464   2.962   4.754  1.0054 -0.5811  0.6740
  498THF     C8 9469   2.656   2.942   4.670 -0.7554  0.0230  0.0770
  498THF     C9 9470   2.619   2.929   4.516  0.1712 -1.0961  0.0895
  498THF    H10 9471   2.652   2.843   4.715 -4.0880  0.4342  0.9248
  498THF    H11 9472   2.754   2.983   4.694 -1.2956  1.0793  0.5497
  498THF    H12 9473   2.690   2.912   4.435  1.0802 -1.2779  0.9098
  498THF    H13 9474   2.547   2.849   4.501 -1.5624  0.5000 -0.5363
  499THF     O1 9475   2.483   1.071   2.455 -0.5147  0.2476  0.3059
  499THF     C2 9476   2.470   1.027   2.320 -0.0224 -0.3783  0.6283
  499THF     C3 9477   2.591   1.008   2.523  0.3056 -0.4131  0.6355
  499THF     H4 9478   2.467   1.105   2.244  0.6924  0.2145  1.2001
  499THF     H5 9479   2.379   0.967   2.322 -0.9319  0.6498 -2.6331
  499THF     H6 9480   2.646   1.063   2.599  0.3591 -1.5517  1.4345
  499THF     H7 9481   2.549   0.921   2.573  0.5595 -0.1823  1.2501
  499THF     C8 9482   2.685   0.963   2.408  0.3569 -0.7038 -0.7524
  499THF     C9 9483   2.589   0.931   2.296 -0.1058  1.0793 -0.0374
  499THF    H10 9484   2.750   0.880   2.433 -0.1177 -0.7125  0.5467
  499THF    H11 9485   2.748   1.036   2.356 -1.7387  1.4334 -0.4734
  499THF    H12 9486   2.625   0.939   2.193  1.2261  2.8430  0.5277
  499THF    H13 9487   2.553   0.828   2.306 -0.7668  1.1215 -1.6035
  500THF     O1 9488   3.316   1.725   3.817 -0.5607  0.0792  0.4359
  500THF     C2 9489   3.302   1.699   3.955 -0.3663 -0.1970  0.1448
  500THF     C3 9490   3.444   1.672   3.769 -0.0484  0.0129 -0.3100
  500THF     H4 9491   3.261   1.599   3.967  1.1893 -0.6222  2.6184
  500THF     H5 9492   3.242   1.772   4.010 -1.5021  0.6009 -2.0486
  500THF     H6 9493   3.418   1.581   3.715 -0.8372 -0.0018  0.0783
  500THF     H7 9494   3.489   1.735   3.692  2.6039 -2.6547 -1.1709
  500THF     C8 9495   3.530   1.654   3.886  0.0469 -0.0927 -0.4908
  500THF     C9 9496   3.443   1.707   4.002 -0.1230  0.7084  0.5876
  500THF    H10 9497   3.615   1.722   3.873  0.8977 -0.9243  0.5737
  500THF    H11 9498   3.564   1.551   3.895 -2.2305 -0.8136  0.4981
  500THF    H12 9499   3.449   1.654   4.097 -3.4125  2.3779  1.8659
  500THF    H13 9500   3.480   1.809   4.010  1.5496  0.1155  0.9683
  501THF     O1 9501   4.111   3.053   5.459  0.0044 -0.3457  0.9204
  501THF     C2 9502   4.136   3.156   5.366  0.3643 -0.2365  0.2651
  501THF     C3 9503   3.967   3.015   5.447 -0.8787 -0.0378 -0.1009
  501THF     H4 9504   4.238   3.148   5.327  0.6400 -1.5377  1.1849
  501THF     H5 9505   4.126   3.257   5.407 -2.3771 -0.2662 -0.1405
  501THF     H6 9506   3.936   2.911   5.457 -2.8989  0.5791  0.4748
  501THF     H7 9507   3.910   3.051   5.532 -0.4188 -0.4858  0.4066
  501THF     C8 9508   3.915   3.081   5.319 -0.4123 -0.2863  0.1574
  501THF     C9 9509   4.044   3.121   5.253 -0.0321 -0.5306  0.1374
  501THF    H10 9510   3.856   3.167   5.349 -0.1061  0.5871 -1.6089
  501THF    H11 9511   3.841   3.024   5.262 -0.6324 -0.9444  1.0751
  501THF    H12 9512   4.087   3.041   5.192 -0.4300  0.3869 -1.3875
  501THF    H13 9513   4.033   3.211   5.193 -2.8099 -0.1794  1.0212
  502THF     O1 9514   0.874   0.122   3.086  0.6911  0.1174  0.3504
  502THF     C2 9515   0.729   0.128   3.078 -0.3055  0.2576  0.6772
  502THF     C3 9516   0.908   0.023   3.177 -0.5202 -0.5086  0.4911
  502THF     H4 9517   0.695   0.078   2.987 -1.5962  1.8142  0.2512
  502THF     H5 9518   0.698   0.232   3.066  2.5813  1.1867  0.3598
  502THF     H6 9519   0.922  -0.073   3.126  0.4707 -0.9836  1.6033
  502THF     H7 9520   1.001   0.046   3.229 -0.9965 -0.7528  1.4797
  502THF     C8 9521   0.794   0.022   3.276 -0.0466  0.8160 -0.2877
  502THF     C9 9522   0.671   0.072   3.203  0.8314  0.1246  0.1225
  502THF    H10 9523   0.814   0.093   3.356 -2.4413  1.5549 -0.2605
  502THF    H11 9524   0.787  -0.076   3.323 -0.9197 -0.1144 -2.2283
  502THF    H12 9525   0.598  -0.009   3.198  1.3060 -0.3880  1.2038
  502THF    H13 9526   0.601   0.135   3.258 -0.6223 -0.9643 -0.3860
  503THF     O1 9527   2.382   4.434   3.787 -0.1960  0.0380  0.4971
  503THF     C2 9528   2.510   4.495   3.787  0.1687  0.4296 -0.4220
  503THF     C3 9529   2.375   4.336   3.686  0.0558 -0.0273 -0.1898
  503THF     H4 9530   2.534   4.538   3.885  0.9798 -1.6195  0.3402
  503THF     H5 9531   2.506   4.564   3.703 -1.0833  1.8732  0.7828
  503THF     H6 9532   2.343   4.250   3.744  1.1577  0.6044  1.4354
  503THF     H7 9533   2.314   4.364   3.599 -0.1202  0.0362 -0.0459
  503THF     C8 9534   2.521   4.302   3.652  1.2930 -0.2397  0.3782
  503THF     C9 9535   2.607   4.383   3.753 -0.3146  0.7591  0.4576
  503THF    H10 9536   2.533   4.335   3.549  2.3012 -2.4782 -0.2845
  503THF    H11 9537   2.530   4.194   3.661  1.1591 -0.2782  0.0438
  503THF    H12 9538   2.641   4.318   3.834 -1.4311  0.9531  1.0929
  503THF    H13 9539   2.690   4.413   3.688 -1.4974  1.4319 -0.7833
  504THF     O1 9540   2.695   3.922   1.160 -0.8018 -0.0121 -0.2338
  504THF     C2 9541   2.767   4.008   1.074  0.4835 -0.3716  0.2753
  504THF     C3 9542   2.674   4.008   1.278 -0.2666  0.5715 -0.0757
  504THF     H4 9543   2.736   3.980   0.973 -1.1603 -0.7125  0.8481
  504THF     H5 9544   2.874   4.002   1.089  0.6101 -0.1760 -0.4808
  504THF     H6 9545   2.594   3.977   1.346  0.4745 -1.4251 -0.0479
  504THF     H7 9546   2.768   4.002   1.332 -0.1358 -2.0972 -0.4778
  504THF     C8 9547   2.644   4.150   1.231 -0.2253  0.3837  0.1830
  504THF     C9 9548   2.709   4.150   1.093  0.2052 -0.4349 -0.1208
  504THF    H10 9549   2.681   4.234   1.289 -1.7477 -0.1119  1.9389
  504THF    H11 9550   2.537   4.171   1.222 -0.2575 -0.0822 -0.7319
  504THF    H12 9551   2.632   4.163   1.017  1.3266 -0.2406 -1.2670
  504THF    H13 9552   2.795   4.217   1.084 -1.0174  1.3288  0.8347
  505THF     O1 9553   4.169   0.973   4.625 -0.1081  0.1973 -0.5507
  505THF     C2 9554   4.231   0.931   4.498 -0.3614  0.1147 -0.5416
  505THF     C3 9555   4.023   0.981   4.610 -0.0764 -0.3460 -0.2714
  505THF     H4 9556   4.287   0.838   4.505 -0.8363 -0.0887  0.7457
  505THF     H5 9557   4.286   1.021   4.468 -1.1934  0.4354 -1.1306
  505THF     H6 9558   3.968   0.963   4.703 -0.2370 -4.2724 -0.9539
  505THF     H7 9559   3.983   1.072   4.565  0.3376  1.9837  3.6160
  505THF     C8 9560   3.999   0.874   4.513 -0.3712  0.0245  0.0831
  505THF     C9 9561   4.102   0.899   4.415 -0.6815  0.5875 -0.3859
  505THF    H10 9562   3.901   0.885   4.468  0.2042 -0.3351 -1.3022
  505THF    H11 9563   4.020   0.778   4.561 -0.9841 -0.4188 -0.5192
  505THF    H12 9564   4.108   0.809   4.355 -0.3130 -0.8948  1.7351
  505THF    H13 9565   4.079   0.990   4.359  1.6972  0.5755 -1.5324
  506THF     O1 9566   0.699   5.164   3.815  0.2046 -0.5215  0.6885
  506THF     C2 9567   0.721   5.150   3.954 -1.0572  0.0965 -0.1707
  506THF     C3 9568   0.791   5.256   3.768 -0.9737 -0.8550 -0.0883
  506THF     H4 9569   0.674   5.062   3.998  1.8364 -1.2241  0.4868
  506THF     H5 9570   0.696   5.245   4.001 -0.7093 -0.1610  0.5431
  506THF     H6 9571   0.805   5.254   3.659 -3.8441  1.9265 -0.6487
  506THF     H7 9572   0.761   5.361   3.774 -1.2607 -0.8988 -0.6180
  506THF     C8 9573   0.910   5.242   3.862  0.2061 -0.1898  0.3824
  506THF     C9 9574   0.870   5.143   3.968 -0.3834  0.4536 -0.1835
  506THF    H10 9575   0.928   5.341   3.903  2.1699 -0.9536  1.4602
  506THF    H11 9576   1.002   5.209   3.814 -0.4858 -2.5317  0.5581
  506THF    H12 9577   0.913   5.045   3.950 -0.1533  0.5009  0.1133
  506THF    H13 9578   0.902   5.177   4.066 -0.3515  3.1889 -1.0308
  507THF     O1 9579   1.601   3.718   5.003  0.2444 -0.3635 -0.1673
  507THF     C2 9580   1.526   3.817   5.071 -0.1338  0.1965 -0.2200
  507THF     C3 9581   1.637   3.773   4.873 -0.2217 -0.8110  0.1871
  507THF     H4 9582   1.498   3.786   5.171 -2.3433  0.3259 -0.7541
  507THF     H5 9583   1.427   3.825   5.026  0.9299 -0.2808 -2.7946
  507THF     H6 9584   1.735   3.735   4.844  0.5014  0.8348  0.3183
  507THF     H7 9585   1.568   3.757   4.791  1.5454  0.7337 -1.7138
  507THF     C8 9586   1.664   3.925   4.909  0.1167 -0.1383  0.0862
  507THF     C9 9587   1.605   3.945   5.047  0.3636 -0.2994  0.7056
  507THF    H10 9588   1.616   3.987   4.834  0.0035  0.4711  0.6528
  507THF    H11 9589   1.770   3.945   4.922  0.0282 -0.0124  0.6490
  507THF    H12 9590   1.684   3.949   5.121 -0.1352  1.2524  1.1834
  507THF    H13 9591   1.540   4.032   5.056 -0.0728 -0.5020 -0.3083
  508THF     O1 9592   4.206   5.028   4.234 -0.1402  0.0490 -0.0984
  508THF     C2 9593   4.348   5.030   4.228  0.5148 -0.2034  0.0890
  508THF     C3 9594   4.181   5.042   4.369  0.0661 -0.7743  0.0842
  508THF     H4 9595   4.372   5.136   4.230 -0.7680  0.0834  0.8212
  508THF     H5 9596   4.385   4.996   4.131  1.1329 -2.0821  0.9316
  508THF     H6 9597   4.192   5.149   4.389  1.9907 -1.0449  0.6349
  508THF     H7 9598   4.075   5.020   4.387 -0.4247  1.4030  0.1538
  508THF     C8 9599   4.285   4.954   4.440  0.0998  0.1217 -0.4028
  508THF     C9 9600   4.398   4.952   4.345 -0.9154  1.0652 -0.7383
  508THF    H10 9601   4.264   4.848   4.446  0.7041  0.0089 -0.2498
  508THF    H11 9602   4.310   4.989   4.540 -0.9920  1.0084 -0.4240
  508THF    H12 9603   4.489   5.005   4.372 -0.4547  0.2014 -0.5499
  508THF    H13 9604   4.425   4.851   4.314 -2.2971  0.8753 -1.3675
  509THF     O1 9605   5.138   3.919   1.393  0.1540 -0.5644 -1.0810
  509THF     C2 9606   5.013   3.906   1.327  0.3267 -0.3420  0.1328
  509THF     C3 9607   5.185   3.796   1.449 -0.4118  0.0981 -0.3774
  509THF     H4 9608   5.031   3.885   1.221 -0.1621 -0.7525  0.1256
  509THF     H5 9609   4.952   3.996   1.337 -0.4409 -1.0588  2.5886
  509THF     H6 9610   5.230   3.741   1.367 -1.3151  0.9789 -1.4907
  509THF     H7 9611   5.249   3.810   1.536 -3.0569  0.7162  1.6010
  509THF     C8 9612   5.052   3.728   1.496  0.6805 -0.2416 -0.2534
  509THF     C9 9613   4.947   3.789   1.403 -0.0689 -1.0268  0.6309
  509THF    H10 9614   5.028   3.757   1.598 -0.4690  0.8831 -0.8108
  509THF    H11 9615   5.053   3.619   1.488  0.5979 -0.1996 -0.9324
  509THF    H12 9616   4.894   3.723   1.334 -0.5268 -0.4102  0.3823
  509THF    H13 9617   4.874   3.844   1.462 -0.7618 -0.0668 -1.0546
  510THF     O1 9618   1.078   0.974   3.314 -0.2876  0.2029  0.3699
  510THF     C2 9619   1.070   1.116   3.319 -0.5109  0.7894  0.7974
  510THF     C3 9620   1.160   0.930   3.419 -0.2043 -0.7282 -0.3042
  510THF     H4 9621   0.974   1.154   3.354 -1.9309 -0.8907 -1.0284
  510THF     H5 9622   1.101   1.163   3.226  0.1889  2.1578  1.6874
  510THF     H6 9623   1.103   0.865   3.486 -0.3731 -0.3709 -0.0997
  510THF     H7 9624   1.256   0.884   3.398 -0.3390 -1.5748  0.8215
  510THF     C8 9625   1.181   1.050   3.508  0.1032 -0.0146  0.0027
  510THF     C9 9626   1.177   1.159   3.413  0.4711  0.1175 -0.0598
  510THF    H10 9627   1.274   1.044   3.564  0.3272  1.5121 -0.1457
  510THF    H11 9628   1.096   1.058   3.576  0.6262  0.3126  0.6276
  510THF    H12 9629   1.161   1.258   3.456  1.3867  0.1849  0.1558
  510THF    H13 9630   1.276   1.159   3.366  1.2002 -0.1310  1.4427
  511THF     O1 9631   5.427   0.990   1.497 -0.0476  0.4296  0.1985
  511THF     C2 9632   5.548   1.037   1.556 -0.0309 -0.5203 -0.0518
  511THF     C3 9633   5.438   1.022   1.361 -0.0042  0.2816  0.5255
  511THF     H4 9634   5.593   0.950   1.604  2.0707  0.7546  0.4071
  511THF     H5 9635   5.527   1.117   1.627 -1.6816 -0.2745 -0.7695
  511THF     H6 9636   5.381   0.944   1.309 -0.0541  0.2566  0.6176
  511THF     H7 9637   5.384   1.110   1.326 -0.1265 -0.1454 -0.4048
  511THF     C8 9638   5.589   1.029   1.326 -0.0672  0.5697  0.3020
  511THF     C9 9639   5.637   1.088   1.441  0.0411  0.7623 -0.0714
  511THF    H10 9640   5.604   1.075   1.228 -1.8940 -1.1475 -0.8644
  511THF    H11 9641   5.624   0.925   1.328  1.0752  0.9492  0.4948
  511THF    H12 9642   5.744   1.070   1.455  0.6226  2.3770 -1.9533
  511THF    H13 9643   5.621   1.195   1.426  0.7828  0.6849 -1.6220
  512THF     O1 9644   4.482   5.469   5.341 -0.0389  0.2554 -0.3317
  512THF     C2 9645   4.523   5.593   5.295 -0.7780  0.5562 -0.2777
  512THF     C3 9646   4.356   5.456   5.286  0.4882  0.4511 -0.3936
  512THF     H4 9647   4.568   5.567   5.200  0.0742 -3.4408  1.0398
  512THF     H5 9648   4.611   5.633   5.346 -1.1411  0.8598  0.1237
  512THF     H6 9649   4.351   5.421   5.183 -1.3028  0.3618 -0.3116
  512THF     H7 9650   4.299   5.377   5.335  1.5771 -0.5211 -0.6618
  512THF     C8 9651   4.292   5.591   5.313  0.4025  0.2924  0.7067
  512THF     C9 9652   4.405   5.687   5.293  0.0418 -0.0029  0.4762
  512THF    H10 9653   4.267   5.590   5.419  2.4828 -0.5991  1.2366
  512THF    H11 9654   4.199   5.607   5.258 -0.0620  1.3343  1.7541
  512THF    H12 9655   4.390   5.764   5.216 -0.3385 -0.3413  0.2064
  512THF    H13 9656   4.413   5.738   5.389  0.7011 -1.2783  1.1282
  513THF     O1 9657   2.577   3.897   4.543 -0.5413  0.5385  0.2100
  513THF     C2 9658   2.523   4.012   4.603 -0.1675 -0.0605 -0.8081
  513THF     C3 9659   2.530   3.893   4.405 -1.3734  0.6016 -0.8004
  513THF     H4 9660   2.572   4.032   4.698 -1.1530 -1.3785  0.0095
  513THF     H5 9661   2.420   3.980   4.617 -0.3721  0.2089 -1.6479
  513THF     H6 9662   2.589   3.829   4.340 -1.3343  1.6469 -1.8274
  513THF     H7 9663   2.432   3.846   4.403 -1.6220  0.7401  2.3260
  513THF     C8 9664   2.535   4.036   4.361  0.5801  0.0837  0.5218
  513THF     C9 9665   2.529   4.111   4.491 -0.6845  0.3606  0.0363
  513THF    H10 9666   2.454   4.061   4.292 -0.4325 -0.3442  1.5235
  513THF    H11 9667   2.623   4.068   4.305  0.2321 -1.7889 -1.2020
  513THF    H12 9668   2.624   4.163   4.508  0.6951 -1.3409 -1.9630
  513THF    H13 9669   2.443   4.177   4.492 -0.6804  0.3648  0.6546
  514THF     O1 9670   4.793   1.729   2.554  0.0446  0.4093 -0.1144
  514THF     C2 9671   4.935   1.709   2.589 -0.1174 -0.4050  0.0295
  514THF     C3 9672   4.742   1.844   2.623  1.0826 -0.2834  0.2732
  514THF     H4 9673   5.007   1.692   2.509 -2.2399 -1.2000 -1.8001
  514THF     H5 9674   4.933   1.624   2.657 -1.3242 -2.4331 -2.4169
  514THF     H6 9675   4.729   1.922   2.548  2.0467 -1.1867 -0.8522
  514THF     H7 9676   4.647   1.833   2.677  1.5717 -0.3958  1.1242
  514THF     C8 9677   4.849   1.877   2.729  1.3041 -0.2083  0.3121
  514THF     C9 9678   4.985   1.833   2.661  0.5034  0.1844 -0.4600
  514THF    H10 9679   4.854   1.812   2.815  3.2620 -1.2802 -0.5488
  514THF    H11 9680   4.849   1.981   2.763 -2.5683  0.3622 -0.9976
  514THF    H12 9681   5.009   1.912   2.590 -0.2180  1.0083  0.1882
  514THF    H13 9682   5.051   1.822   2.747 -2.2964 -0.1242  1.8017
  515THF     O1 9683   5.090   1.372   3.464  0.1825 -0.0463 -0.0525
  515THF     C2 9684   5.049   1.297   3.339  0.1558 -0.4536 -1.1371
  515THF     C3 9685   5.175   1.289   3.537 -0.1649  0.3057  0.9622
  515THF     H4 9686   5.011   1.373   3.271  1.0114  0.5693 -0.5239
  515THF     H5 9687   4.975   1.220   3.358 -0.4141  0.2409 -0.4951
  515THF     H6 9688   5.230   1.347   3.612 -1.8290  0.9680  1.7215
  515THF     H7 9689   5.135   1.202   3.589  2.0255 -0.8051  0.8987
  515THF     C8 9690   5.270   1.233   3.428 -0.0875 -0.5076  0.0106
  515THF     C9 9691   5.185   1.237   3.305 -0.0759  0.5509  0.2873
  515THF    H10 9692   5.309   1.134   3.453 -2.2105 -1.1656  0.9605
  515THF    H11 9693   5.354   1.301   3.414 -0.3207  0.9934  4.2676
  515THF    H12 9694   5.230   1.294   3.223  1.0874 -1.3105 -0.4510
  515THF    H13 9695   5.177   1.136   3.266  0.5511  0.2887  0.8239
  516THF     O1 9696   2.376   0.377   5.305 -0.3752  0.3497  0.0494
  516THF     C2 9697   2.489   0.446   5.359 -0.0925 -0.0267 -0.5888
  516THF     C3 9698   2.355   0.261   5.384 -0.0160  0.1656 -0.1778
  516THF     H4 9699   2.462   0.490   5.455 -0.8428 -2.0205  0.1587
  516THF     H5 9700   2.531   0.527   5.299 -1.6013  1.2524  0.0045
  516THF     H6 9701   2.291   0.289   5.468 -1.6362  0.2087 -1.3738
  516THF     H7 9702   2.296   0.193   5.323  0.1236 -0.4570  0.3815
  516THF     C8 9703   2.493   0.226   5.435  0.2141 -0.4024  0.1243
  516THF     C9 9704   2.584   0.333   5.390 -0.0742  0.1066 -0.4443
  516THF    H10 9705   2.523   0.128   5.397  0.3425 -0.8639  1.3689
  516THF    H11 9706   2.495   0.227   5.544 -0.9013  1.6939  0.1670
  516THF    H12 9707   2.665   0.355   5.458 -0.3639  0.8975 -0.3451
  516THF    H13 9708   2.634   0.312   5.295  0.8362 -0.9807  0.2500
  517THF     O1 9709   4.858   3.558   3.173  0.0905  0.0896  0.0725
  517THF     C2 9710   4.935   3.546   3.289  0.8055 -0.2726  0.3890
  517THF     C3 9711   4.780   3.438   3.167 -0.3329 -0.2548 -0.1375
  517THF     H4 9712   4.878   3.576   3.377  0.0032  0.3523 -0.3207
  517THF     H5 9713   5.027   3.602   3.276  1.0300 -1.0291 -1.6743
  517THF     H6 9714   4.693   3.436   3.233 -0.2569 -0.1404 -0.0334
  517THF     H7 9715   4.747   3.436   3.063 -1.2059  2.3562  0.0190
  517THF     C8 9716   4.879   3.327   3.216 -0.5215 -0.1670  0.3338
  517THF     C9 9717   4.977   3.395   3.312 -0.3266 -0.2934  0.5790
  517THF    H10 9718   4.931   3.280   3.132 -0.7338  0.5383 -0.2038
  517THF    H11 9719   4.807   3.256   3.257 -1.4118  0.6400  0.2075
  517THF    H12 9720   4.975   3.366   3.417 -1.3661  0.2460  0.7234
  517THF    H13 9721   5.072   3.388   3.260 -0.5479 -1.8699  0.3360
  518THF     O1 9722   1.188   0.749   5.388  0.1591 -0.0419  0.6241
  518THF     C2 9723   1.273   0.701   5.484  0.0098  0.9437 -0.4602
  518THF     C3 9724   1.183   0.652   5.283 -0.4137 -0.1844  0.3118
  518THF     H4 9725   1.223   0.681   5.579  0.8358  0.0439 -0.1874
  518THF     H5 9726   1.352   0.772   5.511  2.9447 -2.2730  0.2255
  518THF     H6 9727   1.111   0.572   5.294 -1.1892 -0.0519 -2.8343
  518THF     H7 9728   1.138   0.691   5.192  0.2386  0.0598  0.0914
  518THF     C8 9729   1.322   0.592   5.274 -0.2305 -0.8661 -0.4135
  518THF     C9 9730   1.339   0.579   5.428 -0.7378  0.7403  0.1935
  518THF    H10 9731   1.400   0.651   5.226  0.1577  1.2094  2.4885
  518THF    H11 9732   1.322   0.500   5.215 -0.4455 -0.4234 -1.1093
  518THF    H12 9733   1.292   0.489   5.468 -2.2275  0.5009 -1.9223
  518THF    H13 9734   1.444   0.576   5.460 -0.6908  1.9356  0.1829
  519THF     O1 9735   4.428   1.232   3.534 -0.0986 -0.8097 -0.2169
  519THF     C2 9736   4.437   1.375   3.522  0.7972 -0.5640 -0.4738
  519THF     C3 9737   4.294   1.196   3.562  0.4295 -0.9188  0.4029
  519THF     H4 9738   4.438   1.413   3.420 -0.8005 -1.4966 -0.8705
  519THF     H5 9739   4.521   1.406   3.584  0.9958 -0.9036 -0.5694
  519THF     H6 9740   4.226   1.196   3.477 -1.7153  1.6705  1.9512
  519THF     H7 9741   4.273   1.103   3.616  1.2510 -1.5201 -0.2864
  519THF     C8 9742   4.239   1.310   3.652 -0.3213  0.5829  0.1568
  519THF     C9 9743   4.315   1.420   3.598  0.3707 -1.2297  0.4942
  519THF    H10 9744   4.266   1.293   3.756  2.2816 -0.9485 -0.6780
  519THF    H11 9745   4.131   1.314   3.638 -0.2736  0.1856 -0.3629
  519THF    H12 9746   4.243   1.477   3.539  0.5119  0.5297  1.9363
  519THF    H13 9747   4.326   1.486   3.683 -0.0458 -2.0438  1.1921
  520THF     O1 9748   0.235   3.990   4.325  0.9164 -0.3949  0.3612
  520THF     C2 9749   0.289   3.876   4.263  0.2474 -0.1447  0.2716
  520THF     C3 9750   0.215   4.077   4.215  0.1616 -0.4387 -0.3501
  520THF     H4 9751   0.276   3.792   4.331  1.1544  0.2677  0.9699
  520THF     H5 9752   0.397   3.893   4.266  0.1624  0.2917  1.0451
  520THF     H6 9753   0.149   4.158   4.246  1.0140 -0.3538  1.3589
  520THF     H7 9754   0.311   4.121   4.190 -1.0100  2.2688 -0.4449
  520THF     C8 9755   0.157   3.991   4.105  0.3618 -0.1614  0.3474
  520THF     C9 9756   0.227   3.860   4.126 -0.5243 -0.2939  0.4535
  520THF    H10 9757   0.182   4.038   4.010 -1.6985  0.8522  0.2531
  520THF    H11 9758   0.048   3.979   4.108  0.2736  0.7815  2.3983
  520THF    H12 9759   0.158   3.776   4.127  0.9566 -1.5621  0.2692
  520THF    H13 9760   0.297   3.849   4.044 -0.9537 -0.9608  0.1698
  521THF     O1 9761   3.788   2.372   1.907  0.0375  0.1975  0.3085
  521THF     C2 9762   3.775   2.230   1.899 -0.3060  0.3333  0.4093
  521THF     C3 9763   3.918   2.400   1.949  0.3810 -0.9444 -0.1782
  521THF     H4 9764   3.824   2.189   1.811 -0.1935  0.8926  0.2059
  521THF     H5 9765   3.669   2.206   1.902 -1.2012  3.2144 -2.1606
  521THF     H6 9766   3.985   2.424   1.866  0.9517  0.6097  0.6829
  521THF     H7 9767   3.926   2.488   2.013  2.8281  0.5311 -2.3400
  521THF     C8 9768   3.960   2.289   2.043  0.2498 -0.2305  0.7163
  521THF     C9 9769   3.847   2.187   2.028  0.4203  0.1867  0.0672
  521THF    H10 9770   3.963   2.318   2.148 -0.1316  1.4017  0.3128
  521THF    H11 9771   4.060   2.248   2.025 -1.0441 -2.4568 -2.3040
  521THF    H12 9772   3.887   2.086   2.022  1.2818  0.4836  0.6478
  521THF    H13 9773   3.771   2.195   2.106 -0.5405  2.0680 -0.9764
  522THF     O1 9774   1.178   0.181   2.100  0.2458 -0.2929 -0.4158
  522THF     C2 9775   1.125   0.172   1.969  0.3192 -0.1638  0.9089
  522THF     C3 9776   1.236   0.058   2.132  0.2793 -0.1196  0.7840
  522THF     H4 9777   1.141   0.270   1.924  0.1339 -0.9582 -0.9905
  522THF     H5 9778   1.017   0.167   1.954  0.5818  1.9682 -3.0275
  522THF     H6 9779   1.317   0.063   2.204 -0.0260 -1.2591  1.2234
  522THF     H7 9780   1.151   0.004   2.174 -0.1004  1.1833  1.7666
  522THF     C8 9781   1.278  -0.010   1.996  0.1545 -1.1479  0.2480
  522THF     C9 9782   1.203   0.071   1.891  0.0902  0.1307  0.1176
  522THF    H10 9783   1.249  -0.115   2.005 -0.5847 -0.9939 -0.2814
  522THF    H11 9784   1.384  -0.003   1.972 -0.1007 -2.4019 -1.4331
  522THF    H12 9785   1.285   0.105   1.827 -0.9200 -1.8299 -2.3767
  522THF    H13 9786   1.140   0.002   1.835  0.3841 -1.1356  1.3078
  523THF     O1 9787   0.583   3.926   5.496  0.0444 -0.1826  0.1061
  523THF     C2 9788   0.670   3.984   5.595  0.3201 -0.7150 -0.3649
  523THF     C3 9789   0.486   4.026   5.462  0.1936 -0.3202 -0.7781
  523THF     H4 9790   0.769   3.942   5.580 -0.1325 -1.2908 -1.9616
  523THF     H5 9791   0.636   3.965   5.697  1.8206  0.7605  0.4729
  523THF     H6 9792   0.431   3.988   5.376  0.4905  0.8689 -1.5094
  523THF     H7 9793   0.412   4.036   5.542  0.8745  2.5136 -0.4141
  523THF     C8 9794   0.562   4.156   5.455  0.5767 -0.2696  0.1962
  523THF     C9 9795   0.670   4.138   5.561 -0.0312  0.3460  0.2618
  523THF    H10 9796   0.493   4.238   5.474 -2.3619 -2.4613 -0.3764
  523THF    H11 9797   0.594   4.170   5.352 -1.0946  1.7786 -0.1224
  523THF    H12 9798   0.771   4.167   5.533 -0.1876 -0.0477 -0.7226
  523THF    H13 9799   0.649   4.202   5.647 -2.0169 -0.3355  0.3508
  524THF     O1 9800   2.957   1.542   3.505 -0.0107  0.6847  0.1577
  524THF     C2 9801   2.902   1.664   3.561 -0.2773 -0.0158  0.5620
  524THF     C3 9802   3.062   1.505   3.597 -0.1843  0.3365  0.8316
  524THF     H4 9803   2.802   1.676   3.519  0.8998 -0.9148 -2.7647
  524THF     H5 9804   2.967   1.744   3.526  1.7006 -1.2143  1.3126
  524THF     H6 9805   3.107   1.407   3.582 -1.7132 -0.3071  0.2969
  524THF     H7 9806   3.129   1.584   3.563 -0.7826  0.7553  0.6151
  524THF     C8 9807   3.005   1.543   3.735  0.1256  0.6616 -0.7280
  524THF     C9 9808   2.905   1.654   3.715 -0.2898 -0.0444 -0.1553
  524THF    H10 9809   3.083   1.594   3.791  0.6350  0.2399 -1.0422
  524THF    H11 9810   2.968   1.456   3.790  0.3855  0.7488 -0.4096
  524THF    H12 9811   2.805   1.621   3.742 -0.1002 -0.8976 -0.4526
  524THF    H13 9812   2.929   1.745   3.769 -2.4127  0.5557 -0.1566
  525THF     O1 9813   4.252   0.361   4.695 -0.7360 -0.4539  0.1358
  525THF     C2 9814   4.181   0.326   4.581 -0.3468  0.0137  0.0914
  525THF     C3 9815   4.303   0.499   4.672  0.1678  0.0826  0.3413
  525THF     H4 9816   4.075   0.353   4.584  0.1125  2.0411 -0.7260
  525THF     H5 9817   4.191   0.217   4.581  2.8270  0.2340 -0.0734
  525THF     H6 9818   4.232   0.579   4.695 -1.6221 -0.9284 -1.3391
  525THF     H7 9819   4.395   0.515   4.728 -0.4507 -0.0878  1.4485
  525THF     C8 9820   4.352   0.488   4.529  0.3381  0.6068 -0.3601
  525THF     C9 9821   4.259   0.387   4.467  0.4180 -0.9615  0.1588
  525THF    H10 9822   4.456   0.457   4.514 -0.2856 -0.9854 -1.8158
  525THF    H11 9823   4.336   0.588   4.489 -0.9163 -0.0431 -1.5739
  525THF    H12 9824   4.197   0.432   4.390  0.6073 -1.5526 -0.3552
  525THF    H13 9825   4.321   0.313   4.417 -0.1108 -0.7309 -0.8587
  526THF     O1 9826   5.360   4.587   0.058 -0.0247  0.9653 -0.6244
  526THF     C2 9827   5.285   4.698   0.090  0.0596  0.2391 -0.3075
  526THF     C3 9828   5.271   4.505  -0.014  0.4531  0.3988 -0.1735
  526THF     H4 9829   5.267   4.762   0.003  0.8200  0.1197 -0.5566
  526THF     H5 9830   5.345   4.755   0.161  0.2108 -0.2383 -0.0498
  526THF     H6 9831   5.263   4.532  -0.119  1.3422 -1.9725 -0.9121
  526THF     H7 9832   5.302   4.400  -0.020 -0.0146  0.3375 -1.7976
  526THF     C8 9833   5.146   4.513   0.076 -0.2512 -0.3576 -0.0458
  526THF     C9 9834   5.154   4.645   0.143 -0.4091  0.6495  0.3010
  526THF    H10 9835   5.161   4.442   0.158  1.9634  2.3219  2.1012
  526THF    H11 9836   5.049   4.487   0.033 -0.7792  1.8524 -0.2926
  526THF    H12 9837   5.063   4.700   0.119 -1.8235 -1.8469 -0.4563
  526THF    H13 9838   5.162   4.646   0.252 -0.8629 -0.9543  0.3729
  527THF     O1 9839   4.756   2.733   4.946  0.3560  0.2140  0.7006
  527THF     C2 9840   4.640   2.636   4.955 -0.1185 -0.2956  0.1719
  527THF     C3 9841   4.752   2.783   4.810  0.2438  0.1773  0.2361
  527THF     H4 9842   4.543   2.684   4.942 -0.9763 -2.0662 -0.2327
  527THF     H5 9843   4.643   2.563   5.036  2.2306 -2.0347 -1.3366
  527THF     H6 9844   4.682   2.866   4.799 -0.6098 -0.4909  0.5797
  527THF     H7 9845   4.856   2.810   4.792  0.7150 -0.1398  2.1956
  527THF     C8 9846   4.715   2.661   4.727  0.3774 -0.3221 -0.3135
  527THF     C9 9847   4.648   2.560   4.824 -0.1508 -0.1031 -0.0809
  527THF    H10 9848   4.805   2.618   4.682  0.1201 -0.1695 -0.9718
  527THF    H11 9849   4.651   2.687   4.643 -1.4939 -1.8304  0.5781
  527THF    H12 9850   4.552   2.535   4.779  0.4952 -0.1111 -1.5056
  527THF    H13 9851   4.707   2.470   4.836 -1.1801 -0.6302  1.2818
  528THF     O1 9852   4.547   1.185   1.021 -0.2260  0.3759 -0.0943
  528THF     C2 9853   4.459   1.186   0.910  0.2067 -0.1067 -0.9094
  528THF     C3 9854   4.495   1.278   1.114 -0.4692  0.5381 -0.3435
  528THF     H4 9855   4.362   1.145   0.939  0.6364 -0.7239 -0.3141
  528THF     H5 9856   4.494   1.126   0.827 -1.6960 -0.0637 -1.7855
  528THF     H6 9857   4.413   1.226   1.162  0.5308  0.1116  0.9631
  528THF     H7 9858   4.565   1.306   1.193  1.1117 -2.8498 -0.3881
  528THF     C8 9859   4.455   1.397   1.027 -0.6799 -0.6500  0.3525
  528THF     C9 9860   4.433   1.336   0.885 -0.0537  0.8379  1.0129
  528THF    H10 9861   4.540   1.465   1.021 -0.0438 -1.3759  0.8834
  528THF    H11 9862   4.362   1.441   1.063 -0.6250 -1.8030  2.0259
  528THF    H12 9863   4.332   1.344   0.843  0.2975 -0.8080 -0.2586
  528THF    H13 9864   4.500   1.380   0.812 -1.4808  0.4376 -0.6103
  529THF     O1 9865   2.077   3.297   1.262  0.0626 -0.6043  0.1316
  529THF     C2 9866   2.050   3.405   1.350  0.3916  0.3751  0.0192
  529THF     C3 9867   2.072   3.343   1.128 -0.1341 -0.4852  0.4000
  529THF     H4 9868   2.133   3.475   1.358 -0.3124  1.1547  0.6621
  529THF     H5 9869   2.024   3.371   1.450  0.2981 -0.8550 -0.4136
  529THF     H6 9870   2.164   3.398   1.107 -0.5719  0.2435  0.3660
  529THF     H7 9871   2.057   3.268   1.051 -3.3535  1.3342 -0.9390
  529THF     C8 9872   1.955   3.437   1.130  0.2102 -0.1076 -0.5743
  529THF     C9 9873   1.935   3.473   1.275  0.2379 -0.0742  0.3955
  529THF    H10 9874   1.864   3.383   1.103  0.4385 -0.7607 -0.0929
  529THF    H11 9875   1.972   3.524   1.068  1.4983 -0.2319 -0.4284
  529THF    H12 9876   1.932   3.581   1.290 -0.0603  0.1239 -0.9295
  529THF    H13 9877   1.843   3.433   1.316  0.1932  0.3324  0.6996
  530THF     O1 9878   2.917   0.288   1.071 -0.2221 -0.2595 -1.4564
  530THF     C2 9879   2.970   0.334   0.951  0.2791  0.0756  0.6467
  530THF     C3 9880   2.791   0.344   1.099 -0.1121  0.3300 -0.3973
  530THF     H4 9881   2.952   0.267   0.866  0.7388  2.1567 -1.1792
  530THF     H5 9882   3.078   0.347   0.957  0.2805  1.1436 -1.1101
  530THF     H6 9883   2.718   0.300   1.031  1.1626 -2.4871 -0.1017
  530THF     H7 9884   2.752   0.326   1.199 -0.0503  1.8203 -0.0933
  530THF     C8 9885   2.827   0.488   1.075 -0.8015 -0.1590  0.1886
  530THF     C9 9886   2.917   0.477   0.952  0.7926  0.2960  1.0928
  530THF    H10 9887   2.876   0.531   1.162  0.3724  0.0427 -0.5589
  530THF    H11 9888   2.731   0.538   1.055 -3.2665 -3.8801  1.6046
  530THF    H12 9889   2.856   0.483   0.862  0.1878 -1.6216  1.3284
  530THF    H13 9890   2.999   0.549   0.951  2.7163 -1.8008 -0.4499
  531THF     O1 9891   2.958   4.640   2.059  0.3574  0.3738 -0.3158
  531THF     C2 9892   3.001   4.777   2.065  1.1013 -0.5581 -0.5051
  531THF     C3 9893   2.827   4.641   2.110 -0.6900  0.2073  0.1254
  531THF     H4 9894   2.941   4.827   1.989 -2.2526 -0.1012  2.1736
  531THF     H5 9895   3.108   4.793   2.051  1.3091 -1.3837  0.0597
  531THF     H6 9896   2.766   4.677   2.027 -0.1007  0.7752 -0.0734
  531THF     H7 9897   2.805   4.537   2.130 -1.4588  0.4844  0.7737
  531THF     C8 9898   2.830   4.727   2.234  0.2261 -0.5529  0.6600
  531THF     C9 9899   2.943   4.828   2.198  0.6717 -0.2335  0.6558
  531THF    H10 9900   2.850   4.667   2.323  1.1636 -1.9676 -0.4415
  531THF    H11 9901   2.740   4.787   2.244  1.3399  1.9209 -2.3213
  531THF    H12 9902   2.912   4.930   2.172  0.2959 -0.7212 -0.8865
  531THF    H13 9903   3.020   4.828   2.275  3.1719  2.1940 -1.6246
  532THF     O1 9904   3.259   4.208   0.996  0.0931  0.3468 -0.4483
  532THF     C2 9905   3.267   4.331   1.069  0.1039 -0.3020 -0.0190
  532THF     C3 9906   3.302   4.222   0.861 -0.3386 -0.5354  0.6408
  532THF     H4 9907   3.279   4.325   1.178  2.7430 -0.8805 -0.2763
  532THF     H5 9908   3.193   4.401   1.031  0.5525  0.0006 -0.3483
  532THF     H6 9909   3.325   4.127   0.812 -0.5332  0.1104 -0.7593
  532THF     H7 9910   3.223   4.271   0.805 -0.1841 -0.5639  0.3974
  532THF     C8 9911   3.420   4.314   0.892 -0.2195  0.3191 -0.1715
  532THF     C9 9912   3.387   4.402   1.009 -0.1669  0.7984 -0.1882
  532THF    H10 9913   3.452   4.374   0.807 -0.7206 -0.3624 -0.8539
  532THF    H11 9914   3.499   4.247   0.923  0.3149  1.2035  0.4138
  532THF    H12 9915   3.469   4.395   1.080  0.9191 -1.1703 -1.5179
  532THF    H13 9916   3.371   4.501   0.966  0.0845  1.1514  0.5276
  533THF     O1 9917   3.612   5.229   0.378  0.4821 -0.1338 -0.4943
  533THF     C2 9918   3.609   5.328   0.281 -0.2049  0.4421 -0.3177
  533THF     C3 9919   3.732   5.244   0.450  0.2708  0.4003 -0.7550
  533THF     H4 9920   3.567   5.418   0.326 -1.0028 -0.1478  0.1546
  533THF     H5 9921   3.551   5.304   0.192 -2.2257 -0.5877  1.1830
  533THF     H6 9922   3.715   5.270   0.555 -0.7763  2.8241 -1.4741
  533THF     H7 9923   3.767   5.140   0.453  0.6856  0.5337  2.4401
  533THF     C8 9924   3.823   5.336   0.377  0.3552 -0.0862 -0.1900
  533THF     C9 9925   3.753   5.359   0.239  0.1300  0.3141  0.5029
  533THF    H10 9926   3.931   5.323   0.379  0.3511  0.0062  0.7949
  533THF    H11 9927   3.804   5.433   0.423 -2.1144 -0.1642 -0.8904
  533THF    H12 9928   3.766   5.459   0.195 -2.6105  0.4868 -0.0815
  533THF    H13 9929   3.784   5.283   0.167 -3.6971  0.0712 -1.1328
  534THF     O1 9930   3.294   0.550   0.122  0.8870 -0.1569  0.5376
  534THF     C2 9931   3.235   0.568  -0.007 -0.1683 -0.0557 -0.6767
  534THF     C3 9932   3.207   0.459   0.197 -0.4704  0.4842  0.7326
  534THF     H4 9933   3.300   0.521  -0.081  1.4780  1.0124  0.0281
  534THF     H5 9934   3.231   0.676  -0.023 -1.1620  0.0805  0.3561
  534THF     H6 9935   3.232   0.355   0.176  2.5689  1.4714 -1.0933
  534THF     H7 9936   3.229   0.469   0.304  0.8283  0.3128  0.4970
  534THF     C8 9937   3.065   0.498   0.145  0.7451  0.7469  0.3949
  534THF     C9 9938   3.094   0.505  -0.006 -0.2623 -0.8530  0.1458
  534THF    H10 9939   3.040   0.593   0.194 -0.8109 -0.2007  1.5422
  534THF    H11 9940   2.981   0.436   0.177  1.1610  0.6221  1.2842
  534THF    H12 9941   3.114   0.410  -0.055 -1.4139 -0.6197 -0.8025
  534THF    H13 9942   3.025   0.558  -0.072  0.4713 -0.7094 -0.5304
  535THF     O1 9943   4.799   5.093   5.420 -0.1339  0.7058 -0.1545
  535THF     C2 9944   4.827   5.184   5.530 -0.4798  0.7417  0.0025
  535THF     C3 9945   4.873   4.975   5.434 -0.0802  0.3077  0.3786
  535THF     H4 9946   4.745   5.197   5.601 -1.6047  0.2475 -1.1743
  535THF     H5 9947   4.855   5.283   5.494  1.4647  0.1644 -0.1830
  535THF     H6 9948   4.831   4.912   5.513  1.7491 -0.3746  0.8479
  535THF     H7 9949   4.879   4.918   5.342 -0.5228 -1.2275  1.2645
  535THF     C8 9950   5.004   5.028   5.483 -0.5242  0.2267  0.2961
  535THF     C9 9951   4.958   5.124   5.585  0.3729 -0.4489 -0.1614
  535THF    H10 9952   5.058   5.081   5.404 -0.8579 -0.8078 -0.6443
  535THF    H11 9953   5.064   4.945   5.521 -1.0060  0.9583  2.8794
  535THF    H12 9954   4.928   5.072   5.676 -1.0932  0.7513  0.0756
  535THF    H13 9955   5.033   5.199   5.612 -0.9369  0.6216  0.6509
  536THF     O1 9956   2.615   3.801   0.579 -0.3854 -0.3704 -0.5019
  536THF     C2 9957   2.644   3.667   0.564 -0.2707 -0.7124 -0.0908
  536THF     C3 9958   2.653   3.877   0.460 -0.3752  0.3591 -0.3103
  536THF     H4 9959   2.584   3.600   0.625 -1.6737 -0.0597 -0.6949
  536THF     H5 9960   2.747   3.651   0.596 -0.3549  0.2555  0.7151
  536THF     H6 9961   2.591   3.965   0.441 -1.6900 -0.4528  0.0696
  536THF     H7 9962   2.756   3.911   0.471 -0.0425 -0.2049 -1.5921
  536THF     C8 9963   2.627   3.774   0.351 -0.1858 -0.8261 -0.1583
  536THF     C9 9964   2.610   3.646   0.416 -0.2120 -0.0444 -0.9789
  536THF    H10 9965   2.711   3.762   0.282 -0.3111 -0.9702 -0.2861
  536THF    H11 9966   2.534   3.804   0.304 -0.3195 -1.9197 -0.6125
  536THF    H12 9967   2.503   3.624   0.423 -0.1436 -0.2501 -0.5360
  536THF    H13 9968   2.672   3.570   0.370  0.1665 -1.8083  2.1223
  537THF     O1 9969   4.465   2.599   1.099  0.5983 -0.1458 -0.5747
  537THF     C2 9970   4.575   2.692   1.122  0.5232  0.1941  0.4696
  537THF     C3 9971   4.494   2.474   1.163 -0.0994  0.0289  0.5746
  537THF     H4 9972   4.539   2.768   1.192  0.7816 -0.0634  0.8844
  537THF     H5 9973   4.597   2.733   1.023 -1.4920  0.7832  0.2123
  537THF     H6 9974   4.462   2.478   1.267  1.7451  0.8002  1.1433
  537THF     H7 9975   4.448   2.389   1.112  3.9856 -2.5979  0.8124
  537THF     C8 9976   4.649   2.467   1.149 -0.2904  0.8034  0.2120
  537THF     C9 9977   4.692   2.611   1.171 -0.1502  0.2945  0.5013
  537THF    H10 9978   4.677   2.428   1.051  1.8705  0.5229  0.8978
  537THF    H11 9979   4.701   2.404   1.221  0.7425  0.2216 -1.0067
  537THF    H12 9980   4.706   2.627   1.278  1.9136 -1.6335  0.5965
  537THF    H13 9981   4.782   2.647   1.120 -0.0709 -0.8094 -0.1687
  538THF     O1 9982   0.531   0.402   2.977  0.2335 -0.0748 -0.1088
  538THF     C2 9983   0.387   0.390   2.960  0.1241  0.6325 -0.7366
  538THF     C3 9984   0.556   0.531   3.032  0.0316  0.2780 -0.0151
  538THF     H4 9985   0.344   0.339   3.046 -1.1599  1.1990 -1.0117
  538THF     H5 9986   0.360   0.332   2.871 -4.7884 -0.7556  1.3140
  538THF     H6 9987   0.550   0.533   3.141 -0.6906  2.3362 -0.0536
  538THF     H7 9988   0.652   0.572   3.001  0.8349 -0.9129  0.7925
  538THF     C8 9989   0.449   0.628   2.972 -0.2169  0.0950  0.9257
  538THF     C9 9990   0.324   0.533   2.945 -0.6841 -0.0978 -0.0445
  538THF    H10 9991   0.492   0.659   2.877  0.3002 -2.0699  0.3929
  538THF    H11 9992   0.436   0.716   3.035 -0.1232  1.1887 -0.5258
  538THF    H12 9993   0.248   0.541   3.023  0.8610  0.9438  1.4230
  538THF    H13 9994   0.269   0.558   2.855 -0.9242  1.5824  0.5220
  539THF     O1 9995   0.684   3.771   1.731 -0.0726  0.4716 -0.3127
  539THF     C2 9996   0.569   3.745   1.811  0.2238  0.4371  0.0628
  539THF     C3 9997   0.787   3.802   1.816 -0.1776 -0.1482 -0.4897
  539THF     H4 9998   0.584   3.651   1.864 -0.9419  0.1973  0.0069
  539THF     H5 9999   0.478   3.735   1.751  1.0281 -1.2578 -0.9436
  539THF     H610000   0.832   3.715   1.863  0.4856 -0.4705 -1.6942
  539THF     H710001   0.868   3.846   1.758 -0.3100 -2.3367 -2.4410
  539THF     C810002   0.721   3.898   1.915 -0.2788  0.0473  0.4307
  539THF     C910003   0.577   3.850   1.920  0.3312  0.6593  0.8769
  539THF    H1010004   0.723   4.005   1.894 -1.4008  0.0632  0.3397
  539THF    H1110005   0.762   3.884   2.015 -0.6414 -1.9734  0.3585
  539THF    H1210006   0.558   3.797   2.014 -0.0379  0.5964  0.7676
  539THF    H1310007   0.513   3.936   1.902  1.0653  1.6990  2.9354
  540THF     O110008   4.380   3.994   4.708  0.2955 -0.1845  0.4302
  540THF     C210009   4.493   4.052   4.646 -0.1533  0.1044  0.0471
  540THF     C310010   4.328   3.891   4.623  0.1293 -0.1565  1.0348
  540THF     H410011   4.584   4.019   4.696  0.4272  0.2587 -0.8819
  540THF     H510012   4.474   4.159   4.647  1.8939  0.5009  1.2913
  540THF     H610013   4.386   3.802   4.646  1.6152  0.3823 -0.3805
  540THF     H710014   4.225   3.864   4.647 -0.8709  0.4774 -2.1165
  540THF     C810015   4.355   3.937   4.479 -0.9482 -0.2226  0.5538
  540THF     C910016   4.488   3.999   4.498  0.9415 -0.1901  0.1260
  540THF    H1010017   4.279   4.003   4.436 -1.0625 -1.7822 -1.7971
  540THF    H1110018   4.354   3.847   4.418 -0.2426  0.0323  0.1586
  540THF    H1210019   4.557   3.915   4.498 -1.2577 -2.0814 -0.9270
  540THF    H1310020   4.511   4.077   4.425  1.0917 -1.6806 -1.4815
  541THF     O110021   2.886   5.065   0.297 -0.0309 -0.2546  0.2826
  541THF     C210022   2.981   5.016   0.393  0.1120 -0.4147  0.0540
  541THF     C310023   2.960   5.157   0.216 -0.1934  0.3915 -0.3779
  541THF     H410024   2.953   4.919   0.434 -0.1179  0.2583  1.5323
  541THF     H510025   2.978   5.093   0.469  0.1569  1.6819 -1.9406
  541THF     H610026   2.903   5.176   0.125 -1.9498 -0.7954  0.4151
  541THF     H710027   2.993   5.247   0.268  0.7228  0.3913 -0.9348
  541THF     C810028   3.087   5.078   0.188  0.1184 -0.5485 -0.2669
  541THF     C910029   3.118   5.010   0.319  0.4838  0.3143 -0.2976
  541THF    H1010030   3.176   5.124   0.144  0.1088 -0.2285  0.0504
  541THF    H1110031   3.053   4.997   0.122  3.5847 -1.4001 -1.2567
  541THF    H1210032   3.148   4.906   0.308  1.7439  0.6017  0.2695
  541THF    H1310033   3.203   5.056   0.370 -0.0635  1.3987 -0.3334
  542THF     O110034   5.254   2.925   2.989 -0.9523  0.9671  0.2204
  542THF     C210035   5.148   3.001   2.951 -0.0010  0.5448 -0.5923
  542THF     C310036   5.312   2.970   3.108  0.1673  0.0417  0.1493
  542THF     H410037   5.057   2.968   3.002 -0.2923  0.2663 -1.2828
  542THF     H510038   5.122   2.998   2.845 -0.7090  2.2876 -0.5071
  542THF     H610039   5.244   2.943   3.188 -0.1529 -0.3820 -0.2626
  542THF     H710040   5.408   2.922   3.130  0.4305 -0.3775 -1.6860
  542THF     C810041   5.314   3.115   3.081 -0.6372  0.8975 -0.5927
  542THF     C910042   5.196   3.142   2.994 -0.0580  0.2368  0.1631
  542THF    H1010043   5.400   3.119   3.014 -1.0696  0.1774 -1.2077
  542THF    H1110044   5.327   3.176   3.170 -0.9161  0.7348 -0.4412
  542THF    H1210045   5.124   3.203   3.049  0.5142  0.7904  0.3054
  542THF    H1310046   5.227   3.193   2.903 -0.5328 -2.2996 -1.5066
  543THF     O110047   2.040   1.056   4.363  0.0336 -0.2620 -0.1955
  543THF     C210048   1.899   1.032   4.370  0.3448  0.7481  0.3365
  543THF     C310049   2.056   1.137   4.256  0.2011  0.0229  0.3253
  543THF     H410050   1.852   1.120   4.417 -0.1899  0.7918 -0.2618
  543THF     H510051   1.879   0.939   4.423 -1.6002 -1.2869 -3.5658
  543THF     H610052   2.033   1.241   4.281 -0.7040 -0.2737  0.7740
  543THF     H710053   2.161   1.138   4.227  0.2522  1.5591  0.4578
  543THF     C810054   1.964   1.088   4.150  0.4558  0.3428 -0.3660
  543THF     C910055   1.847   1.019   4.226 -0.4034  0.0616  0.1385
  543THF    H1010056   2.011   1.024   4.076  0.2585 -2.0518  1.4762
  543THF    H1110057   1.919   1.166   4.087 -0.7752  0.1386  0.2327
  543THF    H1210058   1.750   1.069   4.221 -2.0055 -2.7806  0.3427
  543THF    H1310059   1.838   0.912   4.207 -3.6396 -0.0835  1.8303
  544THF     O110060   3.051   3.083   2.150 -0.1242  0.2728  0.1992
  544THF     C210061   3.115   2.974   2.089 -0.0884  0.6947  0.5385
  544THF     C310062   3.049   3.045   2.287  0.4490  0.1392  0.5692
  544THF     H410063   3.223   2.982   2.100  0.1630 -0.6308 -0.6255
  544THF     H510064   3.087   2.960   1.984  2.1421  1.2946 -0.1882
  544THF     H610065   3.119   3.104   2.346 -0.6572  1.5061  0.5828
  544THF     H710066   2.956   3.090   2.323  1.6146  2.6029  0.7322
  544THF     C810067   3.043   2.891   2.295 -0.8209  0.5426 -0.0725
  544THF     C910068   3.048   2.850   2.146 -0.4595  0.6815  0.4360
  544THF    H1010069   2.953   2.845   2.336 -0.2570  1.8203  2.7899
  544THF    H1110070   3.127   2.840   2.341 -1.2879  0.4403  0.6721
  544THF    H1210071   3.114   2.765   2.127 -1.0022 -0.4855  3.2542
  544THF    H1310072   2.950   2.834   2.101 -1.3363  0.7781  2.2156
  545THF     O110073   3.199   4.103   3.964 -0.5387 -0.6268 -1.0464
  545THF     C210074   3.293   4.208   4.003  0.3435  0.0341  0.6557
  545THF     C310075   3.206   4.003   4.060  0.0806  0.2705  0.2452
  545THF     H410076   3.258   4.301   3.957  0.6888  2.1692  4.2894
  545THF     H510077   3.388   4.191   3.953 -0.1270  2.2914 -1.1823
  545THF     H610078   3.128   3.929   4.043 -1.0766  1.3585  0.5797
  545THF     H710079   3.303   3.954   4.059  0.3267  0.6470 -2.8353
  545THF     C810080   3.185   4.083   4.185  0.0146 -0.4237 -0.0335
  545THF     C910081   3.266   4.213   4.158 -0.0642  0.4108 -0.2710
  545THF    H1010082   3.215   4.025   4.273 -0.0489 -0.3295  0.0504
  545THF    H1110083   3.083   4.119   4.190  0.5173  1.3382 -1.3065
  545THF    H1210084   3.222   4.304   4.197 -0.5606  0.2974 -0.5602
  545THF    H1310085   3.356   4.207   4.220 -2.2188  4.2807  3.7844
  546THF     O110086   1.546   1.539   5.047  0.3088 -0.1338  0.1886
  546THF     C210087   1.426   1.500   4.975 -0.5284  0.5668  0.4048
  546THF     C310088   1.648   1.443   5.017  0.1822 -0.0634 -0.3428
  546THF     H410089   1.430   1.521   4.868 -2.2045 -1.2155 -0.0725
  546THF     H510090   1.330   1.530   5.016 -1.4889 -3.1906  1.3025
  546THF     H610091   1.729   1.481   4.955  1.8639 -0.4684  1.5035
  546THF     H710092   1.700   1.418   5.109 -2.1523  0.5197  1.2378
  546THF     C810093   1.589   1.320   4.966 -0.0050 -0.1897  0.4612
  546THF     C910094   1.444   1.350   4.993 -0.1135  0.6645  0.0780
  546THF    H1010095   1.616   1.229   5.021 -2.3040 -1.1408  0.1494
  546THF    H1110096   1.617   1.323   4.861  0.2569  1.8226  0.5589
  546THF    H1210097   1.383   1.291   4.924  0.9501 -0.7221  0.2725
  546THF    H1310098   1.407   1.313   5.088 -3.1215  1.4347 -0.6893
  547THF     O110099   1.168   0.040   5.130 -0.0672  0.3007  0.2877
  547THF     C210100   1.161   0.118   5.246  0.3316  0.0119 -0.4776
  547THF     C310101   1.292  -0.024   5.114 -0.7610  0.3225  0.7933
  547THF     H410102   1.059   0.146   5.271  0.9539  0.1635  2.1824
  547THF     H510103   1.219   0.211   5.247 -0.6010  0.6791  2.5093
  547THF     H610104   1.296  -0.107   5.043  0.7947  1.4634 -0.5152
  547THF     H710105   1.370   0.038   5.069  0.2050  0.0641  2.0470
  547THF     C810106   1.315  -0.069   5.253  0.9602  0.4377 -0.3239
  547THF     C910107   1.215   0.010   5.339  0.1108  0.0093  0.2549
  547THF    H1010108   1.412  -0.034   5.289 -0.0235  2.2645  0.6833
  547THF    H1110109   1.306  -0.175   5.279 -1.3108  0.6662  0.0699
  547THF    H1210110   1.131  -0.055   5.366  0.3383  0.3820  2.0023
  547THF    H1310111   1.252   0.053   5.432 -0.3867 -0.4621  0.6848
  548THF     O110112   3.057   2.874   5.452 -0.3102  0.1673 -0.1331
  548THF     C210113   2.988   2.767   5.386  0.0211  0.6927  0.7316
  548THF     C310114   3.153   2.929   5.368  0.5041  0.3323  0.8250
  548THF     H410115   2.884   2.800   5.380  0.2772  1.5521  0.9517
  548THF     H510116   3.011   2.672   5.434 -0.7702  0.6451  1.0334
  548THF     H610117   3.157   3.035   5.392 -1.3335  0.9697 -1.2953
  548THF     H710118   3.246   2.873   5.377  0.4333 -0.1881 -1.2100
  548THF     C810119   3.097   2.905   5.228 -0.1452  0.0408 -1.2086
  548THF     C910120   3.037   2.763   5.239  0.2497 -0.3249 -0.6713
  548THF    H1010121   3.172   2.905   5.149  0.6619  0.1681 -0.4647
  548THF    H1110122   3.010   2.966   5.205 -1.1035 -1.3891 -1.5140
  548THF    H1210123   2.957   2.738   5.169 -0.4378 -2.3584  0.7527
  548THF    H1310124   3.117   2.690   5.227 -1.2251 -1.9103 -1.3179
  549THF     O110125   0.842   2.132   3.619 -0.3961 -0.0517  0.4975
  549THF     C210126   0.731   2.201   3.673 -0.8325 -0.0322  0.6374
  549THF     C310127   0.842   1.998   3.658  0.1820  0.3440 -0.5026
  549THF     H410128   0.677   2.259   3.598  0.4065  0.5732  0.1802
  549THF     H510129   0.768   2.273   3.746  1.8663 -1.3505  0.6942
  549THF     H610130   0.891   1.936   3.583  0.4513  0.3012 -0.2938
  549THF     H710131   0.907   1.978   3.743  3.0719  1.4310 -2.3423
  549THF     C810132   0.694   1.971   3.673  0.4106  0.4400  0.4103
  549THF     C910133   0.635   2.093   3.736  0.3368 -0.4229  0.3505
  549THF    H1010134   0.663   1.885   3.733 -0.4438 -1.1956 -2.2277
  549THF    H1110135   0.659   1.965   3.570  2.2482  0.8819 -0.2754
  549THF    H1210136   0.532   2.118   3.708 -0.1977 -2.6757  0.0768
  549THF    H1310137   0.657   2.099   3.843  1.9392  2.0468 -0.0509
  550THF     O110138   1.484   4.792   4.314  0.0883 -0.2242 -0.3062
  550THF     C210139   1.535   4.914   4.353  0.3804  0.4084 -0.5599
  550THF     C310140   1.342   4.807   4.308 -0.0627 -0.4825 -0.3045
  550THF     H410141   1.549   4.974   4.263 -0.8714  0.7772 -0.5209
  550THF     H510142   1.633   4.909   4.401 -0.2518 -1.1215  0.6884
  550THF     H610143   1.315   4.826   4.204 -0.7136  1.4485  0.1746
  550THF     H710144   1.299   4.715   4.348  1.6439 -0.8456  0.7481
  550THF     C810145   1.302   4.919   4.403  0.9963  0.8325 -0.6873
  550THF     C910146   1.434   4.959   4.459 -0.1952  0.4737  0.7479
  550THF    H1010147   1.246   4.879   4.488  0.4118 -0.0610 -1.4771
  550THF    H1110148   1.243   5.003   4.367  0.4557  2.1873  2.9367
  550THF    H1210149   1.433   5.067   4.466 -0.4780  0.5055  0.2754
  550THF    H1310150   1.445   4.912   4.557 -0.2998  1.3456  1.1856
  551THF     O110151   2.669   1.085   3.404 -0.3912  0.2911 -0.3457
  551THF     C210152   2.723   0.971   3.333  0.1652 -0.2048  0.1879
  551THF     C310153   2.760   1.193   3.390  0.3630 -0.0447 -0.5841
  551THF     H410154   2.647   0.938   3.262  0.1485 -0.3004  0.2498
  551THF     H510155   2.733   0.885   3.399  1.2363 -0.4066 -0.2136
  551THF     H610156   2.716   1.292   3.399  0.9540  0.1015  1.0877
  551THF     H710157   2.844   1.193   3.460  0.3378  0.1489 -0.5544
  551THF     C810158   2.835   1.170   3.259 -0.1992  0.4572 -0.9011
  551THF     C910159   2.843   1.015   3.251 -0.1542  0.8403 -0.2249
  551THF    H1010160   2.938   1.204   3.252  0.7713 -1.6611  1.4006
  551THF    H1110161   2.777   1.215   3.179  1.1920  2.4409 -0.8611
  551THF    H1210162   2.832   0.975   3.151 -0.2900  0.6613 -0.1384
  551THF    H1310163   2.934   0.969   3.289 -0.1947  0.3446 -0.7196
  552THF     O110164   3.622   3.217   5.288  0.0876 -0.1204  0.2186
  552THF     C210165   3.545   3.112   5.233 -0.3520  0.3420 -0.3663
  552THF     C310166   3.637   3.324   5.194  0.8422 -0.3806 -0.4510
  552THF     H410167   3.489   3.059   5.310 -1.9019  1.4037 -0.7069
  552THF     H510168   3.608   3.039   5.182 -0.2790  1.5613 -2.1336
  552THF     H610169   3.612   3.413   5.251  2.6942  0.6539 -1.1864
  552THF     H710170   3.741   3.328   5.163  0.6525 -0.4274 -1.1097
  552THF     C810171   3.540   3.290   5.073 -0.1589 -0.0978 -0.1672
  552THF     C910172   3.452   3.181   5.134 -0.0434  0.2163  0.6511
  552THF    H1010173   3.595   3.244   4.991  2.4688  2.7216 -0.1792
  552THF    H1110174   3.489   3.377   5.032 -2.3429 -1.7215 -1.0732
  552THF    H1210175   3.363   3.226   5.179  1.0818  0.0906  3.1227
  552THF    H1310176   3.415   3.118   5.053  0.4207 -0.3894  0.9035
  553THF     O110177   1.037   1.312   0.111 -0.4044  0.5997 -0.2735
  553THF     C210178   0.930   1.322   0.016 -0.3896  0.2301  0.0632
  553THF     C310179   0.977   1.300   0.241  0.6323  0.3966  0.1623
  553THF     H410180   0.870   1.232   0.003 -1.0449  0.8009 -1.0086
  553THF     H510181   0.975   1.357  -0.077 -0.2832  1.3856  0.5345
  553THF     H610182   0.938   1.198   0.253  0.8246  0.1189 -1.3516
  553THF     H710183   1.047   1.329   0.319  1.9537 -0.6270 -0.6097
  553THF     C810184   0.864   1.402   0.239 -0.0221 -0.0749  0.2492
  553THF     C910185   0.856   1.440   0.089 -0.1211  0.2494 -0.4329
  553THF    H1010186   0.877   1.484   0.309  0.4256 -0.7165  0.9336
  553THF    H1110187   0.770   1.362   0.276  0.8642 -1.9449  0.5929
  553THF    H1210188   0.755   1.453   0.052 -0.4905 -4.6552 -1.8396
  553THF    H1310189   0.903   1.536   0.068  0.2284 -0.2199 -1.9004
  554THF     O110190   4.972   4.387   1.657  0.3731  0.0678  0.5186
  554THF     C210191   4.874   4.284   1.656  0.2705 -0.3221  0.5262
  554THF     C310192   5.100   4.334   1.621  0.1539  0.3085 -0.2081
  554THF     H410193   4.818   4.287   1.562  0.4495 -2.7830  0.2847
  554THF     H510194   4.795   4.292   1.731 -0.6344 -1.1070 -0.2993
  554THF     H610195   5.119   4.344   1.514 -1.2639 -0.4798 -0.5557
  554THF     H710196   5.184   4.377   1.675 -0.6906  0.6268  0.8866
  554THF     C810197   5.097   4.188   1.657 -0.1605  0.4777  0.3213
  554THF     C910198   4.949   4.152   1.661  0.0884 -0.3936 -0.0781
  554THF    H1010199   5.137   4.193   1.759 -0.6977 -0.2146  0.5710
  554THF    H1110200   5.143   4.110   1.596 -1.7716 -0.9063  0.8068
  554THF    H1210201   4.927   4.086   1.577 -1.5649 -2.8341  2.1120
  554THF    H1310202   4.920   4.110   1.758  0.5406  1.5897  0.9902
  555THF     O110203   2.226   2.039   4.497  0.3787 -0.3051 -0.0183
  555THF     C210204   2.194   2.004   4.366 -0.4749 -0.1127  0.4717
  555THF     C310205   2.326   2.141   4.495  0.1001 -0.0587 -0.4036
  555THF     H410206   2.128   2.075   4.316 -0.1517  0.1102  0.3610
  555THF     H510207   2.144   1.907   4.365 -1.6298  0.4760  0.0413
  555THF     H610208   2.273   2.235   4.514  0.7046  0.1539  0.3324
  555THF     H710209   2.402   2.131   4.573 -1.1978 -1.9630  0.6974
  555THF     C810210   2.387   2.138   4.361  0.0508  0.4868 -0.3605
  555THF     C910211   2.334   2.002   4.311 -0.0369  0.3375 -0.6120
  555THF    H1010212   2.495   2.126   4.362 -0.0675 -0.7367  0.1089
  555THF    H1110213   2.357   2.228   4.307  3.3932  0.9470 -1.7276
  555THF    H1210214   2.354   1.987   4.204 -0.6388  1.4092 -0.8828
  555THF    H1310215   2.390   1.924   4.363  1.2433  2.2094  0.9545
  556THF     O110216   1.243   1.516   0.361 -0.0458  0.0406  0.2932
  556THF     C210217   1.255   1.651   0.404 -0.2678 -0.6814  0.2488
  556THF     C310218   1.282   1.500   0.225  0.1368  0.5236 -0.0301
  556THF     H410219   1.291   1.659   0.507  1.8943  3.8661 -0.6350
  556THF     H510220   1.155   1.693   0.404 -0.8297 -1.9757  1.1721
  556THF     H610221   1.298   1.398   0.189 -0.0698  0.9925 -1.5248
  556THF     H710222   1.212   1.542   0.153  1.7771  1.8746 -0.8927
  556THF     C810223   1.412   1.588   0.233  0.2266  0.1315  0.0174
  556THF     C910224   1.357   1.706   0.310  0.6348 -0.9126  0.1797
  556THF    H1010225   1.432   1.621   0.131  3.2625 -3.5623 -0.8116
  556THF    H1110226   1.493   1.525   0.268  0.1317 -0.4124 -0.7125
  556THF    H1210227   1.434   1.761   0.362 -1.7246  2.4085  0.5166
  556THF    H1310228   1.304   1.782   0.252 -0.5783 -1.1986  0.8822
  557THF     O110229   0.805   2.218   3.225  0.3378 -0.0328  0.1600
  557THF     C210230   0.831   2.086   3.262 -0.7672 -0.4136  0.0130
  557THF     C310231   0.874   2.298   3.322 -0.0125  0.2886  0.0084
  557THF     H410232   0.811   2.019   3.179  1.8727  1.1582 -2.0529
  557THF     H510233   0.766   2.066   3.347  1.4906 -1.9707  1.4926
  557THF     H610234   0.883   2.401   3.287  1.1479  1.4603  3.3317
  557THF     H710235   0.829   2.290   3.421  0.4041 -1.1973  0.0982
  557THF     C810236   1.013   2.234   3.324  0.0849  0.2743  0.5471
  557THF     C910237   0.983   2.089   3.306  0.3790  0.1721 -0.0217
  557THF    H1010238   1.065   2.261   3.415 -0.9487  1.1971  0.8815
  557THF    H1110239   1.065   2.277   3.238 -0.6088  0.7188  0.3387
  557THF    H1210240   1.054   2.024   3.253 -1.0802 -1.7267  0.2496
  557THF    H1310241   0.994   2.049   3.407  0.5652  1.5271  0.5129
  558THF     O110242   0.958   3.922   3.474  0.1570  0.3985 -0.4635
  558THF     C210243   1.015   3.887   3.597 -0.8925 -0.5546 -0.1478
  558THF     C310244   0.917   4.051   3.485  0.0188  0.0625 -0.2662
  558THF     H410245   1.122   3.905   3.596 -1.2178  1.5386 -0.3816
  558THF     H510246   0.996   3.780   3.610 -0.6064 -0.5935 -0.0469
  558THF     H610247   0.998   4.116   3.453 -0.8014  0.7545 -0.9891
  558THF     H710248   0.834   4.063   3.415  0.4151 -0.1819 -0.7863
  558THF     C810249   0.861   4.059   3.627  0.4405 -0.1494  0.7660
  558THF     C910250   0.954   3.983   3.709 -0.1480  0.5138 -0.4000
  558THF    H1010251   0.759   4.020   3.630 -0.2536  1.4524 -0.5021
  558THF    H1110252   0.845   4.158   3.670  0.4254 -0.2159  0.9108
  558THF    H1210253   1.027   4.053   3.749 -0.5361  0.7396 -0.0821
  558THF    H1310254   0.905   3.924   3.786 -0.9719  1.3970 -0.2357
  559THF     O110255   4.942   4.062   0.775  0.1665 -0.7209  0.3080
  559THF     C210256   4.952   4.152   0.659 -0.2950  0.4391  0.0824
  559THF     C310257   4.997   3.944   0.736 -0.7761  0.1121 -0.3267
  559THF     H410258   5.051   4.196   0.663 -0.4033  0.7457  4.1243
  559THF     H510259   4.889   4.241   0.662 -0.3378  0.3858  0.9664
  559THF     H610260   5.103   3.966   0.724  0.3377 -3.0350  2.3257
  559THF     H710261   4.995   3.861   0.806 -0.1549 -0.1239 -0.5812
  559THF     C810262   4.937   3.913   0.592 -0.3699 -0.6401  0.4208
  559THF     C910263   4.930   4.059   0.536  0.1795  1.0225 -0.2193
  559THF    H1010264   4.837   3.876   0.614 -2.3648  2.3574 -2.6623
  559THF    H1110265   4.990   3.844   0.526  0.8090 -0.4064  1.0992
  559THF    H1210266   5.001   4.094   0.461 -1.2215 -0.4192 -2.3497
  559THF    H1310267   4.831   4.090   0.500  0.5051 -0.2739 -2.4336
  560THF     O110268   0.644   1.819   1.633 -0.1048 -0.2085 -0.1188
  560THF     C210269   0.562   1.703   1.654  0.2466 -0.0298  0.1768
  560THF     C310270   0.686   1.814   1.493 -0.0958 -0.9168  0.0762
  560THF     H410271   0.488   1.714   1.733  0.3237  0.1960  0.2195
  560THF     H510272   0.625   1.618   1.677  2.7902  0.7851 -2.9974
  560THF     H610273   0.698   1.914   1.451 -1.0466 -1.0121 -0.4391
  560THF     H710274   0.789   1.779   1.480  0.2714  0.6728 -1.7032
  560THF     C810275   0.602   1.715   1.420  0.9569 -0.4046  0.3205
  560THF     C910276   0.494   1.686   1.517 -0.0128 -0.0091 -0.1075
  560THF    H1010277   0.655   1.623   1.396  0.5247 -0.3499 -0.8833
  560THF    H1110278   0.564   1.747   1.323  3.5955  1.4676 -0.1979
  560THF    H1210279   0.424   1.765   1.489  0.3972 -0.5872 -3.1839
  560THF    H1310280   0.442   1.591   1.503 -1.5956  0.5591  1.5689
  561THF     O110281   1.689   3.940   3.824 -0.9334 -0.2871 -0.5200
  561THF     C210282   1.580   4.012   3.878  0.1457 -0.2669 -0.1865
  561THF     C310283   1.656   3.876   3.706 -0.7010 -0.0685 -0.4784
  561THF     H410284   1.587   4.113   3.837 -0.2655 -1.4108 -3.3719
  561THF     H510285   1.583   4.027   3.986  0.2908  2.0101 -0.4666
  561THF     H610286   1.651   3.942   3.619  0.4331  0.8325  0.1183
  561THF     H710287   1.733   3.810   3.667 -0.9400  1.5003 -4.0118
  561THF     C810288   1.513   3.828   3.747  0.3996 -0.2125 -0.1468
  561THF     C910289   1.449   3.938   3.834 -0.6251 -0.5159  0.2476
  561THF    H1010290   1.516   3.730   3.794  0.8125 -0.7626 -1.3021
  561THF    H1110291   1.447   3.821   3.661 -0.3926 -2.1502  0.5469
  561THF    H1210292   1.402   3.992   3.752 -0.7241 -0.8432  0.0842
  561THF    H1310293   1.379   3.915   3.915  0.4090 -1.5331  0.8853
  562THF     O110294   0.224   4.640   1.780 -0.4515 -0.5984  0.2395
  562THF     C210295   0.275   4.569   1.669  0.0013 -0.3074  0.1403
  562THF     C310296   0.324   4.735   1.829  0.1788  1.1351 -0.7992
  562THF     H410297   0.262   4.618   1.573  1.9375 -1.0740 -0.5745
  562THF     H510298   0.234   4.468   1.667 -0.8323  0.0314 -0.0446
  562THF     H610299   0.290   4.835   1.801 -1.8591  0.1665 -1.9783
  562THF     H710300   0.333   4.733   1.937  3.7123  1.0212 -0.9725
  562THF     C810301   0.450   4.699   1.759 -0.3286  0.2459 -0.0023
  562THF     C910302   0.424   4.565   1.698  0.2009  0.2399 -0.1693
  562THF    H1010303   0.539   4.701   1.822 -0.7159  0.8563  0.5329
  562THF    H1110304   0.466   4.766   1.674  0.1082 -0.0614 -0.1680
  562THF    H1210305   0.495   4.553   1.616  0.1788 -0.3856 -0.1074
  562THF    H1310306   0.436   4.493   1.779 -0.4027 -0.2231 -0.4816
  563THF     O110307   1.811   3.099   4.234  0.8203 -0.2346  0.2005
  563THF     C210308   1.787   3.235   4.282  0.3985 -0.2918 -0.2435
  563THF     C310309   1.685   3.030   4.227  0.0847  0.2181  0.3621
  563THF     H410310   1.810   3.298   4.196 -0.9461  0.9199  0.2361
  563THF     H510311   1.866   3.242   4.357  2.2651 -0.2610 -2.1164
  563THF     H610312   1.685   2.956   4.147  0.5147 -0.4177  0.9380
  563THF     H710313   1.678   2.976   4.321 -1.2494  0.3785  0.3721
  563THF     C810314   1.588   3.153   4.222 -0.2611  0.3685 -0.1802
  563THF     C910315   1.646   3.251   4.323  0.0453  0.5680 -0.1566
  563THF    H1010316   1.487   3.118   4.246 -0.5946  1.3482 -0.1096
  563THF    H1110317   1.582   3.195   4.122  1.9649  2.2233  0.3952
  563THF    H1210318   1.611   3.346   4.282 -0.3848  0.2153 -0.6131
  563THF    H1310319   1.614   3.224   4.423  3.4985  0.9244  1.1823
  564THF     O110320   0.926   0.856   3.867  0.0698 -0.3302 -0.3383
  564THF     C210321   0.865   0.824   3.993 -0.1594  0.7889 -0.3278
  564THF     C310322   1.006   0.747   3.839  0.0289 -0.4194  0.5782
  564THF     H410323   0.786   0.892   4.025 -0.1924  1.3676 -1.5942
  564THF     H510324   0.941   0.825   4.072 -1.6716 -0.1601  1.2140
  564THF     H610325   1.034   0.744   3.734 -0.2086 -2.1540  0.5384
  564THF     H710326   1.098   0.761   3.896  0.4909  0.7944 -0.4175
  564THF     C810327   0.923   0.624   3.885  0.1693 -0.4809  0.1586
  564THF     C910328   0.819   0.689   3.970  0.7995  0.3759  0.1319
  564THF    H1010329   0.982   0.569   3.959  1.1404  3.2118  2.3937
  564THF    H1110330   0.873   0.561   3.811  1.4124  0.9558 -2.0429
  564THF    H1210331   0.723   0.687   3.917 -0.0508  0.1675  1.6266
  564THF    H1310332   0.810   0.636   4.065  2.4635  0.1596  0.1938
  565THF     O110333   2.705   3.332   4.289  0.2668 -0.0351  0.1277
  565THF     C210334   2.814   3.245   4.314 -0.3378  0.2611 -0.1737
  565THF     C310335   2.689   3.426   4.392  0.2786  0.0561 -0.7416
  565THF     H410336   2.884   3.242   4.230  0.5008 -1.2686  0.5306
  565THF     H510337   2.778   3.142   4.313 -0.9117  0.4387  1.0122
  565THF     H610338   2.646   3.521   4.361 -0.2184 -0.6140 -2.1848
  565THF     H710339   2.615   3.375   4.453  0.9317  0.4697  0.4281
  565THF     C810340   2.825   3.434   4.463 -0.2087  0.0086 -0.0610
  565THF     C910341   2.875   3.294   4.448 -0.3705  0.2962  0.0329
  565THF    H1010342   2.817   3.472   4.565  2.3137 -0.1040  0.2285
  565THF    H1110343   2.891   3.499   4.405 -1.9128  0.1946 -1.9241
  565THF    H1210344   2.982   3.299   4.431 -0.0892 -0.1396  1.5159
  565THF    H1310345   2.851   3.231   4.533  1.0500  0.2764  0.4520
  566THF     O110346   3.432   5.201   4.308 -1.0342 -0.2039  0.5091
  566THF     C210347   3.500   5.174   4.423  0.4395  0.0715  0.7393
  566THF     C310348   3.498   5.303   4.225 -0.0742 -0.6200  0.2843
  566THF     H410349   3.481   5.071   4.456  1.0938  0.4314  2.3253
  566THF     H510350   3.465   5.248   4.495 -2.4396  0.8627 -1.3050
  566THF     H610351   3.494   5.292   4.117 -0.7292  1.5816  0.0430
  566THF     H710352   3.451   5.396   4.257 -0.3942 -0.3518 -0.9379
  566THF     C810353   3.642   5.309   4.284  0.5916  0.1594  0.3720
  566THF     C910354   3.647   5.197   4.382  0.5117  1.0119  0.0924
  566THF    H1010355   3.659   5.400   4.341 -2.8047  0.9263  0.3678
  566THF    H1110356   3.723   5.319   4.212  0.1422 -0.9446 -0.3188
  566THF    H1210357   3.680   5.114   4.319  3.2424  1.5350  0.7296
  566THF    H1310358   3.718   5.220   4.461  1.0579  3.1857 -0.9697
  567THF     O110359   2.780   5.162   0.913 -1.1546  0.0004 -0.0429
  567THF     C210360   2.883   5.157   0.810  0.2330  0.1874 -0.6494
  567THF     C310361   2.728   5.293   0.912  0.2836 -0.5384 -0.2520
  567THF     H410362   2.848   5.095   0.728 -2.1191  1.0316 -0.3575
  567THF     H510363   2.977   5.113   0.845  0.4605  0.9047 -0.3163
  567THF     H610364   2.624   5.289   0.946  0.0233 -3.1289 -1.1096
  567THF     H710365   2.774   5.361   0.984 -0.3599  0.0292 -0.3627
  567THF     C810366   2.756   5.360   0.778 -0.4098 -0.3282 -0.6945
  567THF     C910367   2.894   5.297   0.751  0.3904  0.1058  0.4618
  567THF    H1010368   2.763   5.465   0.807 -1.7290 -0.9496  2.3558
  567THF    H1110369   2.681   5.342   0.702 -0.8311  0.9470 -0.5979
  567THF    H1210370   2.918   5.286   0.645  0.9710  1.7086  0.3860
  567THF    H1310371   2.972   5.361   0.794  0.1971  0.7204 -0.0894
  568THF     O110372   0.989   3.263   3.486  0.0415  0.3912 -0.0773
  568THF     C210373   0.953   3.365   3.582  0.8809 -0.0475  0.6541
  568THF     C310374   0.973   3.140   3.549  0.4203 -0.0911  0.8510
  568THF     H410375   0.845   3.383   3.579  1.1071  1.3419  0.2045
  568THF     H510376   0.996   3.461   3.553  0.0068  0.3390  0.5958
  568THF     H610377   0.875   3.098   3.525  0.1660  0.5820  0.7087
  568THF     H710378   1.045   3.062   3.519  0.2242 -0.2730  0.8494
  568THF     C810379   0.974   3.165   3.701 -0.4290 -0.3573 -0.8219
  568THF     C910380   1.009   3.314   3.716 -0.3816 -0.5161  0.1710
  568THF    H1010381   1.038   3.090   3.748 -0.5697 -1.0692 -1.7381
  568THF    H1110382   0.879   3.138   3.746  0.0558  0.2296  0.6192
  568THF    H1210383   0.974   3.340   3.817 -3.7392 -3.1102 -0.1284
  568THF    H1310384   1.117   3.325   3.719 -0.5362  1.2496  0.6809
  569THF     O110385   0.468   4.396   5.200  0.4374 -0.5057 -0.1932
  569THF     C210386   0.420   4.308   5.102  0.1592 -0.0292  0.2672
  569THF     C310387   0.599   4.417   5.157 -0.4845  0.2201 -0.3456
  569THF     H410388   0.312   4.323   5.092 -0.0432 -0.6012  1.4532
  569THF     H510389   0.438   4.203   5.126 -1.5940 -1.0150 -2.2920
  569THF     H610390   0.644   4.506   5.202 -1.2362  0.5966 -0.3360
  569THF     H710391   0.655   4.324   5.175 -2.3125 -1.4144 -2.6077
  569THF     C810392   0.600   4.433   5.009  0.1218 -0.3915 -0.2342
  569THF     C910393   0.487   4.340   4.967  0.9904 -0.2166 -0.4398
  569THF    H1010394   0.691   4.411   4.953  0.2881  2.2031 -1.0916
  569THF    H1110395   0.576   4.536   4.983 -0.5824 -0.7767 -1.1707
  569THF    H1210396   0.417   4.394   4.903  0.3680  1.1779  1.3060
  569THF    H1310397   0.525   4.254   4.913 -2.4736 -1.0618 -1.7735
  570THF     O110398   0.601   0.348   5.335 -0.0472 -0.0545  0.1688
  570THF     C210399   0.692   0.299   5.237 -0.3760  0.6614  0.1168
  570THF     C310400   0.626   0.481   5.340  0.0951  0.2566  0.3794
  570THF     H410401   0.659   0.201   5.203 -1.1241  0.8084  0.3957
  570THF     H510402   0.792   0.296   5.281 -0.7082  3.3284  1.2959
  570THF     H610403   0.557   0.536   5.403 -1.8092 -1.3314 -0.2013
  570THF     H710404   0.728   0.499   5.374  0.3411 -0.5516  0.0995
  570THF     C810405   0.628   0.517   5.189 -0.2919 -0.3449  0.0557
  570THF     C910406   0.704   0.405   5.123  1.0417 -0.2310  0.0754
  570THF    H1010407   0.675   0.614   5.179  0.1464 -0.3636  1.7017
  570THF    H1110408   0.525   0.523   5.153 -0.3600  0.5897  0.3857
  570THF    H1210409   0.658   0.368   5.032 -1.2587 -0.7194  1.3396
  570THF    H1310410   0.808   0.414   5.092  1.0022  1.5918  0.3476
  571THF     O110411   1.790   4.396   3.197 -0.3498  0.4292 -0.0551
  571THF     C210412   1.789   4.374   3.057  0.0538 -0.6017  0.4123
  571THF     C310413   1.924   4.373   3.248 -0.2460 -0.2175 -0.4759
  571THF     H410414   1.719   4.438   3.003  0.6618 -1.1765 -1.0969
  571THF     H510415   1.764   4.273   3.025 -3.2398  0.1804  0.1180
  571THF     H610416   1.943   4.427   3.341  1.2041  1.2834 -1.5733
  571THF     H710417   1.911   4.270   3.282 -0.7481  0.3472  1.1300
  571THF     C810418   2.026   4.407   3.138  0.1375 -0.0764  0.5417
  571THF     C910419   1.934   4.406   3.016  0.8903 -0.1143 -0.0731
  571THF    H1010420   2.101   4.328   3.144  0.3189  0.1739  2.2390
  571THF    H1110421   2.070   4.506   3.146 -0.7637  0.3515  0.2957
  571THF    H1210422   1.925   4.506   2.973 -1.1350 -0.6012 -0.9051
  571THF    H1310423   1.963   4.344   2.932  0.6128 -0.6714  0.2365
  572THF     O110424   0.038   3.199   1.664 -0.2119  0.5596  0.4363
  572THF     C210425   0.157   3.202   1.741 -0.0800  0.1089 -0.2100
  572THF     C310426   0.077   3.166   1.534  0.0783  0.2031  0.3755
  572THF     H410427   0.134   3.210   1.847 -0.9991  0.3110 -0.4146
  572THF     H510428   0.199   3.300   1.718  1.7043 -0.2464  1.2442
  572THF     H610429  -0.000   3.127   1.468 -2.3320  0.7949  2.7010
  572THF     H710430   0.118   3.254   1.483 -0.7865  0.0741 -0.5787
  572THF     C810431   0.177   3.057   1.555  0.0289  0.9226  0.3088
  572THF     C910432   0.231   3.080   1.696  0.0071 -0.0084 -0.2781
  572THF    H1010433   0.247   3.037   1.473 -0.8988  2.2419 -0.8372
  572THF    H1110434   0.124   2.962   1.562 -1.9910  2.0437  1.0181
  572THF    H1210435   0.198   2.995   1.754 -0.1009  0.7508  0.8060
  572THF    H1310436   0.338   3.101   1.702  0.0914 -0.8167  1.7551
  573THF     O110437   2.680   1.814   4.047 -0.3432  0.6985  0.5941
  573THF     C210438   2.767   1.887   3.967 -0.9324 -0.1238  0.8926
  573THF     C310439   2.654   1.872   4.170  0.4924  0.3504  0.9842
  573THF     H410440   2.724   1.867   3.869  1.9789 -0.8497 -0.3510
  573THF     H510441   2.867   1.845   3.972 -0.7736  0.3399  1.7621
  573THF     H610442   2.547   1.889   4.181  0.1641  0.6215 -1.8917
  573THF     H710443   2.679   1.816   4.260 -1.6183 -0.6495  0.9993
  573THF     C810444   2.724   2.002   4.164  0.6040  0.1874  0.5851
  573THF     C910445   2.733   2.026   4.016  0.1776 -0.7779 -0.1300
  573THF    H1010446   2.826   1.993   4.202  1.1678 -0.0535 -0.9301
  573THF    H1110447   2.670   2.075   4.225 -0.9563 -0.7098  0.3217
  573THF    H1210448   2.633   2.059   3.990 -0.1834 -0.2639  1.7625
  573THF    H1310449   2.799   2.106   3.982 -0.1472 -0.7650 -0.7390
  574THF     O110450   2.975   4.104   2.268  0.0080  0.2921 -0.1129
  574THF     C210451   3.066   4.212   2.270  0.2558 -0.1834  0.5213
  574THF     C310452   3.020   4.010   2.168  0.1592  0.6718  0.1484
  574THF     H410453   3.148   4.214   2.342 -0.6587 -2.1854  1.7002
  574THF     H510454   3.001   4.297   2.292  0.7671  0.4555 -0.3429
  574THF     H610455   3.103   3.956   2.214 -0.1657 -0.6755 -0.7758
  574THF     H710456   2.944   3.938   2.137  0.4199  0.0268  0.9523
  574THF     C810457   3.070   4.102   2.056  0.6835  0.0161 -0.2742
  574THF     C910458   3.125   4.227   2.128  0.5565 -0.5545 -0.1963
  574THF    H1010459   2.976   4.126   2.007  0.2495 -0.3261  0.3621
  574THF    H1110460   3.132   4.045   1.987 -0.2546 -1.6926  0.2075
  574THF    H1210461   3.233   4.243   2.131  0.1915  2.5715  0.0734
  574THF    H1310462   3.090   4.325   2.094  1.0122 -0.1197  0.5629
  575THF     O110463   2.447   1.041   5.181  0.0422 -0.2164 -0.2947
  575THF     C210464   2.475   0.949   5.292 -0.5704 -0.5991  0.2753
  575THF     C310465   2.323   1.102   5.201  1.1163  0.1356 -0.1771
  575THF     H410466   2.581   0.955   5.313 -0.1562  2.6640 -1.8645
  575THF     H510467   2.456   0.853   5.244  1.2871 -1.2186  0.7216
  575THF     H610468   2.331   1.209   5.224 -3.2088  1.0439 -1.8090
  575THF     H710469   2.264   1.108   5.110 -0.8080  1.7905  1.0730
  575THF     C810470   2.248   1.037   5.319 -0.1764  0.3113 -0.1920
  575THF     C910471   2.368   0.986   5.396  0.0962  0.6091  0.6242
  575THF    H1010472   2.192   0.948   5.292 -0.5342  0.7024 -0.7557
  575THF    H1110473   2.190   1.102   5.385 -0.1789  0.9421 -0.8104
  575THF    H1210474   2.390   1.067   5.465  0.6718 -1.3266  2.8299
  575THF    H1310475   2.343   0.895   5.451  1.2552 -1.1480 -1.5999
  576THF     O110476   1.701   4.571   1.624  0.1359 -0.7490 -0.1342
  576THF     C210477   1.610   4.491   1.557 -0.1867  0.5185  0.6628
  576THF     C310478   1.826   4.560   1.567 -0.2361 -0.2687  1.0190
  576THF     H410479   1.516   4.545   1.566 -0.2533  0.5030  0.0865
  576THF     H510480   1.602   4.395   1.608  1.2929 -0.4068 -0.7449
  576THF     H610481   1.882   4.650   1.592  1.0062 -1.1341  1.4131
  576THF     H710482   1.884   4.478   1.610 -0.1787 -0.6479  0.2272
  576THF     C810483   1.799   4.522   1.424 -0.9961  0.3158  0.9449
  576THF     C910484   1.658   4.466   1.418 -0.0960  0.5146 -0.9950
  576THF    H1010485   1.875   4.458   1.381 -0.0310  1.6236  0.6566
  576THF    H1110486   1.803   4.608   1.358 -0.1498 -0.2914  0.1760
  576THF    H1210487   1.595   4.500   1.336 -1.4835  1.5854  0.4341
  576THF    H1310488   1.662   4.358   1.403 -3.2157  0.0464  0.6255
  577THF     O110489   0.029   3.033   2.133  0.2173 -0.9367  0.1014
  577THF     C210490   0.101   3.097   2.239  0.2976  0.0305 -0.0033
  577THF     C310491   0.116   2.952   2.053  0.0553 -0.1954 -0.3141
  577THF     H410492   0.031   3.099   2.323  0.7043  1.1676  0.3351
  577THF     H510493   0.128   3.200   2.214 -0.7316  0.8748  2.0957
  577THF     H610494   0.082   2.876   1.984  2.5170 -1.8905  0.2098
  577THF     H710495   0.164   3.030   1.994  0.0309  0.9287  1.0873
  577THF     C810496   0.206   2.893   2.156 -0.0819  0.3632  0.4959
  577THF     C910497   0.212   2.997   2.268 -0.0601  0.4586  0.2888
  577THF    H1010498   0.307   2.876   2.119  0.2136  3.7667 -0.6375
  577THF    H1110499   0.170   2.801   2.203 -1.9521  1.4702  1.3546
  577THF    H1210500   0.184   2.956   2.365 -0.1345  4.6593  2.2546
  577THF    H1310501   0.313   3.035   2.283 -0.2636  1.2117 -0.1789
  578THF     O110502   1.887   1.995   4.380  0.0955  0.1753  0.0025
  578THF     C210503   1.865   1.905   4.486 -0.4085 -0.8160 -0.3977
  578THF     C310504   1.760   2.011   4.319  0.2987 -1.0157 -0.0677
  578THF     H410505   1.813   1.957   4.567  1.9709  0.0121  0.6893
  578THF     H510506   1.959   1.869   4.529 -0.6288  0.1227  0.9359
  578THF     H610507   1.719   2.071   4.400 -0.0206 -1.5699  0.1928
  578THF     H710508   1.746   2.073   4.230 -0.2032 -0.8074  0.1536
  578THF     C810509   1.706   1.873   4.305  0.5745  0.4257  0.4541
  578THF     C910510   1.777   1.799   4.420  0.0901 -0.2544  0.2625
  578THF    H1010511   1.752   1.833   4.215 -1.9470 -0.4601 -0.5246
  578THF    H1110512   1.598   1.875   4.289  1.0823  1.3283 -4.3955
  578THF    H1210513   1.698   1.769   4.489  2.9217  0.4435  4.1810
  578THF    H1310514   1.840   1.713   4.398  1.8556 -0.1366  4.0294
  579THF     O110515   4.988   4.235   3.607 -0.4262  0.4475  0.6322
  579THF     C210516   4.984   4.371   3.569 -0.7473 -0.5525  0.4014
  579THF     C310517   5.005   4.220   3.748  0.2203  0.6510  0.5466
  579THF     H410518   4.879   4.401   3.562 -0.1447  2.9477  3.0872
  579THF     H510519   5.037   4.387   3.475 -0.4160 -0.4746  0.6008
  579THF     H610520   4.931   4.165   3.805 -0.6335  0.3197 -0.8252
  579THF     H710521   5.096   4.166   3.774 -0.5531 -0.1225  1.7309
  579THF     C810522   5.023   4.360   3.804 -0.1449 -0.1207 -0.7638
  579THF     C910523   5.053   4.444   3.685  0.2451  0.4062  0.1500
  579THF    H1010524   5.105   4.355   3.877 -1.8339  0.7952  1.3029
  579THF    H1110525   4.929   4.387   3.852 -0.3387  1.1150 -1.8093
  579THF    H1210526   5.010   4.543   3.697 -1.9087 -0.5401  0.6639
  579THF    H1310527   5.160   4.453   3.665 -0.2139  0.7646 -2.5197
  580THF     O110528   3.171   0.327   5.186  0.6500 -0.4466  0.1965
  580THF     C210529   3.313   0.310   5.190 -0.4914 -0.9698 -0.7941
  580THF     C310530   3.103   0.244   5.087 -0.6162 -0.1584 -0.2369
  580THF     H410531   3.352   0.334   5.289 -1.0815  2.4111 -1.2408
  580THF     H510532   3.365   0.372   5.117  0.4071 -1.4469 -0.5664
  580THF     H610533   3.033   0.182   5.143 -0.2335  0.3585  0.8285
  580THF     H710534   3.031   0.305   5.032 -3.5333 -1.9010  1.4178
  580THF     C810535   3.224   0.179   5.014  0.6349 -0.0260 -0.0693
  580THF     C910536   3.316   0.171   5.132  0.4375  0.1429 -0.5661
  580THF    H1010537   3.259   0.241   4.931  2.7297  1.5122  1.8530
  580THF    H1110538   3.203   0.078   4.978  1.5300  0.2189 -1.3706
  580THF    H1210539   3.285   0.109   5.216  0.0015  1.2512  0.1045
  580THF    H1310540   3.413   0.123   5.115 -0.3994 -1.3902 -1.2081
  581THF     O110541   4.485   5.448   1.898 -0.0395 -0.3631 -0.4279
  581THF     C210542   4.591   5.506   1.967 -1.0212  0.4487  0.5053
  581THF     C310543   4.403   5.389   1.996 -0.3329  0.3854 -0.0752
  581THF     H410544   4.551   5.603   1.997  0.5484  0.6643  2.0271
  581THF     H510545   4.677   5.519   1.901  0.6387 -0.7995  2.2992
  581THF     H610546   4.357   5.465   2.059  1.3457 -0.4094  2.2658
  581THF     H710547   4.329   5.314   1.969 -1.2592  0.9642  0.7631
  581THF     C810548   4.508   5.331   2.086  0.1437  0.3555  0.5629
  581THF     C910549   4.625   5.419   2.091  0.4962  0.1800  0.1542
  581THF    H1010550   4.532   5.232   2.046  0.6496  0.7157 -0.0546
  581THF    H1110551   4.480   5.304   2.188 -1.3727 -0.0363  0.0714
  581THF    H1210552   4.633   5.476   2.184 -0.0063 -0.2009  0.4360
  581THF    H1310553   4.721   5.369   2.080  0.8219  0.2672  2.1724
  582THF     O110554   4.013   1.178   1.815 -0.3761 -0.2426 -0.2037
  582THF     C210555   4.063   1.220   1.939  0.0612 -0.4892 -1.1438
  582THF     C310556   3.999   1.293   1.729  0.0044 -0.8167 -0.1413
  582THF     H410557   4.171   1.228   1.928 -0.1170  2.0539 -1.5674
  582THF     H510558   4.039   1.156   2.025  1.8754  1.2426  0.7644
  582THF     H610559   4.090   1.299   1.669 -0.4856 -0.5653 -0.8622
  582THF     H710560   3.917   1.284   1.658  0.7528 -1.0884 -0.9972
  582THF     C810561   3.997   1.418   1.816 -0.0246  0.0684  0.6331
  582THF     C910562   4.013   1.363   1.955  0.0960 -0.6293 -0.6801
  582THF    H1010563   3.918   1.487   1.785  0.2349  0.3433  0.5710
  582THF    H1110564   4.093   1.464   1.795  0.8033 -1.3485  1.2314
  582THF    H1210565   4.073   1.433   2.013  0.3097 -0.6621 -0.8583
  582THF    H1310566   3.910   1.359   1.991  0.3615 -1.2537  0.0472
  583THF     O110567   5.423   2.324   1.505 -0.1960  0.0090  0.5944
  583THF     C210568   5.391   2.309   1.370 -0.5058  0.0110  0.1297
  583THF     C310569   5.480   2.453   1.527  0.3532 -0.2948  0.0060
  583THF     H410570   5.300   2.363   1.343  0.4329  2.0120  0.8125
  583THF     H510571   5.374   2.206   1.338  0.2527  0.2805 -1.2148
  583THF     H610572   5.396   2.522   1.522 -0.3611 -0.9425  2.0735
  583THF     H710573   5.543   2.466   1.615 -1.5655  2.1163  1.1310
  583THF     C810574   5.562   2.479   1.401  0.5844  0.2251 -0.8310
  583THF     C910575   5.515   2.367   1.304 -0.7689  0.0808 -0.2766
  583THF    H1010576   5.668   2.469   1.426  0.5918  0.4895 -0.7507
  583THF    H1110577   5.542   2.583   1.374  0.9132  1.0228  1.6866
  583THF    H1210578   5.506   2.413   1.205  1.5698  2.1709  0.4027
  583THF    H1310579   5.593   2.293   1.283  0.1873  1.2550 -0.9752
  584THF     O110580   0.163   4.918   2.636  0.3417 -0.3923  0.0265
  584THF     C210581   0.068   4.823   2.673 -0.0543  0.4380  0.1023
  584THF     C310582   0.095   5.042   2.619 -0.5485  0.2979  0.7406
  584THF     H410583   0.109   4.738   2.727 -3.0973 -0.3983  1.2967
  584THF     H510584   0.007   4.778   2.594  0.6892 -0.0203 -0.2152
  584THF     H610585   0.156   5.123   2.660 -0.0196  0.7214 -0.8419
  584THF     H710586   0.091   5.057   2.511  0.3775  0.4039  0.7196
  584THF     C810587  -0.037   5.030   2.689 -0.3210 -0.7559  0.4831
  584THF     C910588  -0.028   4.897   2.756  0.7932  0.8036 -0.2452
  584THF    H1010589  -0.120   5.041   2.620 -1.1585 -1.2174  1.3964
  584THF    H1110590  -0.053   5.104   2.768 -1.4422 -0.6855  0.1967
  584THF    H1210591   0.008   4.916   2.857  0.3407  0.3800  0.0008
  584THF    H1310592  -0.123   4.843   2.764  1.1447  0.4396  2.9246
  585THF     O110593   4.371   2.776   5.427  0.1254 -0.1490  0.9728
  585THF     C210594   4.446   2.656   5.442  0.0509 -0.1637 -0.3369
  585THF     C310595   4.295   2.759   5.308 -0.3030 -0.3049 -0.6423
  585THF     H410596   4.381   2.583   5.491 -1.1868  0.1944 -1.3816
  585THF     H510597   4.535   2.667   5.504 -0.1825 -3.5044  0.8300
  585THF     H610598   4.209   2.694   5.323 -1.4615  0.9965 -1.4245
  585THF     H710599   4.266   2.858   5.273  0.9884  0.5667  0.6119
  585THF     C810600   4.390   2.688   5.213 -0.7804  0.0229 -0.1945
  585THF     C910601   4.493   2.617   5.304  0.6223 -0.1944  0.2289
  585THF    H1010602   4.429   2.758   5.139 -0.2654  1.6471  1.5426
  585THF    H1110603   4.329   2.622   5.151  1.0210 -0.2408 -1.7550
  585THF    H1210604   4.488   2.509   5.292 -1.0590 -0.0761 -0.4190
  585THF    H1310605   4.593   2.656   5.283  0.1839  0.9069  0.1324
  586THF     O110606   0.973   2.919   5.084 -0.7893  0.2702 -0.0371
  586THF     C210607   1.019   2.983   4.967  0.5048  0.3059  0.7650
  586THF     C310608   1.063   2.816   5.124 -0.1469  0.5317 -0.2762
  586THF     H410609   1.025   3.091   4.980 -2.3375  0.6776 -0.3648
  586THF     H510610   0.939   2.973   4.894  0.9073 -0.2132  0.3910
  586THF     H610611   1.064   2.815   5.233  1.8345  1.1317 -0.2354
  586THF     H710612   1.016   2.721   5.100  0.9441 -1.0146  3.0669
  586THF     C810613   1.193   2.853   5.056  0.3996  0.7862  0.3362
  586THF     C910614   1.145   2.917   4.931 -0.9166 -0.1968 -0.6346
  586THF    H1010615   1.259   2.769   5.036  0.4446  0.7613  0.5963
  586THF    H1110616   1.255   2.914   5.121  0.9962 -0.9582  1.4543
  586THF    H1210617   1.220   2.984   4.889 -0.9841  0.3726  0.1194
  586THF    H1310618   1.117   2.843   4.856  0.0663  0.8975 -2.1408
  587THF     O110619   0.802   4.900   4.473  0.3460 -0.1695 -0.3434
  587THF     C210620   0.688   4.957   4.411 -0.1074  0.2423 -0.0333
  587THF     C310621   0.901   5.000   4.486  0.2394 -0.0563 -0.4723
  587THF     H410622   0.604   4.972   4.478  1.2914  2.0406  1.4293
  587THF     H510623   0.667   4.883   4.333  0.6493  0.0030 -0.0282
  587THF     H610624   0.944   5.001   4.586  0.0642  2.7004 -0.3615
  587THF     H710625   0.983   4.983   4.415 -0.0634  0.5822 -0.9856
  587THF     C810626   0.841   5.133   4.449 -0.5391  0.0668  0.0972
  587THF     C910627   0.735   5.093   4.358  0.4544 -0.2516  0.1449
  587THF    H1010628   0.915   5.195   4.398 -0.8862  2.0492  1.8769
  587THF    H1110629   0.803   5.187   4.536 -1.5108  1.1934 -0.9945
  587THF    H1210630   0.651   5.162   4.355  0.5522 -0.1522 -0.8369
  587THF    H1310631   0.779   5.072   4.260 -2.2594 -3.4205 -0.5847
  588THF     O110632   1.311   2.347   1.118  0.2408 -0.3684 -0.3163
  588THF     C210633   1.281   2.241   1.035 -0.0480  0.1159  0.5928
  588THF     C310634   1.366   2.316   1.243 -0.8251 -0.6061 -0.1810
  588THF     H410635   1.310   2.253   0.931  1.4390 -1.5887  0.7660
  588THF     H510636   1.173   2.221   1.035 -0.0763  0.0218 -1.5645
  588THF     H610637   1.471   2.342   1.249 -0.9758 -0.2808  1.7227
  588THF     H710638   1.312   2.376   1.317 -1.5121  0.7785 -1.7465
  588THF     C810639   1.338   2.165   1.243 -0.0107  0.3899 -0.6232
  588THF     C910640   1.357   2.126   1.100 -0.5330 -0.1386 -0.5896
  588THF    H1010641   1.236   2.143   1.274  0.2311 -0.8528 -0.6515
  588THF    H1110642   1.409   2.110   1.305  1.1572  0.0174 -2.2352
  588THF    H1210643   1.461   2.124   1.069 -0.4309 -1.5383 -0.2260
  588THF    H1310644   1.313   2.030   1.071 -2.3787  0.9611 -1.6965
  589THF     O110645   4.121   0.013   4.990 -0.1637 -0.3481 -0.0405
  589THF     C210646   4.186   0.116   4.914 -0.1317 -0.2257 -0.5396
  589THF     C310647   4.076  -0.080   4.896 -0.7877  0.4399 -0.0809
  589THF     H410648   4.258   0.184   4.959  0.9613 -0.7452 -1.4489
  589THF     H510649   4.110   0.177   4.865  1.2333  1.3793 -0.7717
  589THF     H610650   4.036  -0.176   4.932  0.8780 -1.0297 -1.9467
  589THF     H710651   4.003  -0.033   4.831  1.8514  3.5412 -1.0359
  589THF     C810652   4.194  -0.108   4.814 -0.2349 -0.3253  0.1595
  589THF     C910653   4.269   0.023   4.818 -0.0252  0.0562 -0.5289
  589THF    H1010654   4.163  -0.119   4.710 -1.6037 -0.9732  0.6143
  589THF    H1110655   4.254  -0.195   4.842 -0.6460 -1.6668 -2.7680
  589THF    H1210656   4.363   0.016   4.872  0.1652 -0.9573 -0.9670
  589THF    H1310657   4.286   0.075   4.724  0.2507 -1.0484 -1.1053
  590THF     O110658   0.491   1.074   2.795  0.3022  0.1034  0.2775
  590THF     C210659   0.366   1.133   2.775 -0.6212 -0.0751  0.0951
  590THF     C310660   0.510   0.952   2.721  0.4656  0.1440 -0.2062
  590THF     H410661   0.367   1.195   2.686 -0.0166  1.4417  1.1122
  590THF     H510662   0.346   1.194   2.864  2.4110 -0.8066  1.4021
  590THF     H610663   0.575   0.970   2.636  0.1445  0.8128 -0.3207
  590THF     H710664   0.558   0.879   2.786 -1.0241  0.9348  1.9079
  590THF     C810665   0.367   0.910   2.685 -0.0149 -0.0783 -0.6506
  590THF     C910666   0.282   1.002   2.764  0.6231 -0.9295 -0.1633
  590THF    H1010667   0.338   0.808   2.712  1.2455 -0.0858  0.7643
  590THF    H1110668   0.349   0.942   2.582 -1.9811 -0.4218 -0.4582
  590THF    H1210669   0.189   1.025   2.712  1.3987  2.1575 -0.3691
  590THF    H1310670   0.264   0.973   2.868 -2.0979  0.9517  0.0060
  591THF     O110671   3.677   0.980   4.658  0.4178 -0.4945  0.1290
  591THF     C210672   3.658   0.926   4.789 -0.2607 -0.1938 -0.1005
  591THF     C310673   3.559   0.949   4.584 -0.7792  0.6225 -0.5157
  591THF     H410674   3.621   0.995   4.865 -0.8085  4.0453 -3.7691
  591THF     H510675   3.755   0.893   4.825  1.6387  4.6335 -0.0607
  591THF     H610676   3.477   1.019   4.599 -1.3224  0.5140 -2.6962
  591THF     H710677   3.583   0.955   4.478  0.0519 -0.7123 -0.4304
  591THF     C810678   3.538   0.808   4.626  0.0378  0.1604  0.3711
  591THF     C910679   3.555   0.810   4.775  0.9095  0.0571  0.7873
  591THF    H1010680   3.615   0.749   4.576 -1.1281  1.6741 -3.6642
  591THF    H1110681   3.439   0.778   4.591 -0.5597  2.0881  0.2792
  591THF    H1210682   3.463   0.837   4.827  1.2505  2.2124  0.3569
  591THF    H1310683   3.596   0.716   4.812 -1.9623 -1.9387 -0.7004
  592THF     O110684   1.122   4.235   3.041 -0.0516 -0.4737  0.1180
  592THF     C210685   1.222   4.312   3.102 -1.0528 -0.2353 -0.0619
  592THF     C310686   1.046   4.333   2.968 -0.3211 -0.7406  0.1703
  592THF     H410687   1.295   4.240   3.141  0.7767  0.6632 -1.6037
  592THF     H510688   1.201   4.389   3.175 -0.4920  1.9123 -2.0661
  592THF     H610689   0.963   4.284   2.917 -2.7917 -1.6734  4.5434
  592THF     H710690   1.002   4.404   3.038 -1.1452  1.3410 -2.3211
  592THF     C810691   1.158   4.404   2.892  0.5873  0.2561 -0.4820
  592THF     C910692   1.284   4.378   2.980  0.1775  0.5022  0.8155
  592THF    H1010693   1.136   4.511   2.887  0.3081  0.2736  0.7973
  592THF    H1110694   1.170   4.361   2.792 -1.1215 -2.0669  0.2138
  592THF    H1210695   1.355   4.306   2.939  1.7179  0.5652  3.1384
  592THF    H1310696   1.340   4.467   3.010  1.0870  0.0799  0.3927
  593THF     O110697   0.490   0.365   1.050 -0.3826 -0.1170 -0.2623
  593THF     C210698   0.353   0.408   1.055  0.2951  0.2168  0.1353
  593THF     C310699   0.542   0.383   1.177  0.6152  0.3051  0.5613
  593THF     H410700   0.296   0.322   1.091  1.9161 -0.7403  0.5315
  593THF     H510701   0.317   0.440   0.957  1.1706  1.2217  0.1211
  593THF     H610702   0.500   0.307   1.243 -0.8892 -1.8951 -2.6842
  593THF     H710703   0.650   0.382   1.191  1.1565  1.9606 -2.6373
  593THF     C810704   0.487   0.515   1.217  0.3995 -0.0078 -0.7048
  593THF     C910705   0.355   0.525   1.147 -0.0997 -0.0265  0.0604
  593THF    H1010706   0.560   0.589   1.185  0.7872 -0.1167 -0.0785
  593THF    H1110707   0.493   0.527   1.325  0.7226  0.8025 -0.8033
  593THF    H1210708   0.264   0.523   1.208 -0.4819  0.5843 -0.4827
  593THF    H1310709   0.353   0.623   1.100  0.8565  0.1343  0.3356
  594THF     O110710   3.211   5.080   5.192 -0.1403 -0.0564  0.6023
  594THF     C210711   3.222   5.095   5.330  0.2717 -0.9169  0.0363
  594THF     C310712   3.241   5.215   5.137 -0.1376 -0.1754 -0.0156
  594THF     H410713   3.245   4.998   5.374  1.1013 -0.5607  0.4117
  594THF     H510714   3.124   5.123   5.370 -0.3323  0.5211 -2.2541
  594THF     H610715   3.255   5.221   5.029 -1.4566  1.7354 -0.1252
  594THF     H710716   3.156   5.282   5.152  0.3546  0.3617  0.4417
  594THF     C810717   3.361   5.264   5.216 -0.1813  0.1483  0.1606
  594THF     C910718   3.326   5.202   5.351 -0.3219 -0.7828  0.5400
  594THF    H1010719   3.382   5.370   5.227  0.5960  0.0082  0.0852
  594THF    H1110720   3.451   5.215   5.178 -0.6361 -0.7554  0.2251
  594THF    H1210721   3.409   5.156   5.405 -1.3850 -1.9288  1.2423
  594THF    H1310722   3.289   5.281   5.417 -0.5556  0.0093 -0.5109
  595THF     O110723   0.062   0.454   2.049  0.2874 -0.5113  0.0901
  595THF     C210724   0.010   0.352   1.967 -1.0492  0.4963 -0.1177
  595THF     C310725  -0.018   0.458   2.167  0.2197 -1.0152 -0.4308
  595THF     H410726   0.084   0.302   1.904 -2.0998  0.9088 -1.7659
  595THF     H510727  -0.073   0.399   1.913  0.8237  2.8858 -1.0847
  595THF     H610728   0.018   0.521   2.248  0.7339 -1.1315 -0.5624
  595THF     H710729  -0.122   0.485   2.148  0.3243 -0.7157 -0.5833
  595THF     C810730  -0.031   0.309   2.194 -0.2542 -0.6179 -0.2535
  595THF     C910731  -0.025   0.240   2.064 -0.3187  0.7510  0.2021
  595THF    H1010732  -0.130   0.299   2.238  0.5332 -0.7533  1.6037
  595THF    H1110733   0.045   0.271   2.262 -0.5772  0.5161  0.7818
  595THF    H1210734   0.055   0.166   2.072  1.2552  2.3226 -0.3803
  595THF    H1310735  -0.111   0.179   2.039 -0.5657  0.3188  2.0166
  596THF     O110736   3.746   3.608   3.921 -0.0688  0.7331 -0.0145
  596THF     C210737   3.755   3.505   3.830  0.4951 -0.1775  0.5316
  596THF     C310738   3.641   3.584   4.009 -0.1305 -0.8007  0.1831
  596THF     H410739   3.855   3.461   3.829 -0.1604 -1.7329  1.0134
  596THF     H510740   3.742   3.555   3.734  1.2232  0.6906  0.8713
  596THF     H610741   3.655   3.626   4.108 -2.3452  1.4366 -0.3459
  596THF     H710742   3.549   3.630   3.974  0.8084  0.5482 -0.5936
  596THF     C810743   3.616   3.433   4.010 -0.3555 -0.1678 -0.1439
  596THF     C910744   3.653   3.402   3.866  0.0962 -0.0639  0.0961
  596THF    H1010745   3.522   3.392   4.045  0.3499 -0.6238  1.2670
  596THF    H1110746   3.696   3.383   4.064  1.7211  0.2919 -2.5628
  596THF    H1210747   3.673   3.302   3.826  0.0489 -1.0455  2.3826
  596THF    H1310748   3.565   3.429   3.808 -0.2435 -0.4576  0.4182
  597THF     O110749   2.484   1.087   1.372  0.4251 -0.5091  0.3450
  597THF     C210750   2.476   1.012   1.493  0.8014 -0.6239 -0.2825
  597THF     C310751   2.594   1.175   1.379  0.7085  0.3258  0.6394
  597THF     H410752   2.528   0.918   1.479  0.6767 -0.4844 -1.8395
  597THF     H510753   2.370   0.999   1.516  0.1578  1.5028 -1.7738
  597THF     H610754   2.693   1.143   1.348  1.6912  3.0983  0.6453
  597THF     H710755   2.575   1.260   1.315 -0.5614 -1.6235 -1.7487
  597THF     C810756   2.588   1.211   1.528  0.3125 -0.4023 -0.0405
  597THF     C910757   2.541   1.085   1.606  0.2670 -0.2682 -0.6514
  597THF    H1010758   2.513   1.290   1.542 -0.1662 -0.8371 -0.1232
  597THF    H1110759   2.679   1.250   1.573  1.0571 -0.7936 -1.1716
  597THF    H1210760   2.625   1.028   1.645 -0.5775 -0.8652  0.3602
  597THF    H1310761   2.480   1.120   1.690 -0.0171  0.0042 -0.9675
  598THF     O110762   4.907   3.667   0.226  0.0741  0.0442  0.1810
  598THF     C210763   4.887   3.574   0.121 -0.1862  0.6941  0.6944
  598THF     C310764   4.831   3.617   0.337  0.8097 -0.0573  0.2753
  598THF     H410765   4.979   3.564   0.063 -0.6420 -1.8633  0.2603
  598THF     H510766   4.815   3.606   0.046  2.1218  3.7380 -0.4127
  598THF     H610767   4.896   3.601   0.423  0.4511  0.3353  0.6178
  598THF     H710768   4.757   3.693   0.361  2.0528  1.0303  0.7986
  598THF     C810769   4.769   3.487   0.305 -0.7920  0.1605  0.0316
  598THF     C910770   4.859   3.440   0.193 -0.0647  0.6617  0.4499
  598THF    H1010771   4.669   3.504   0.265 -0.5621 -0.3293 -0.7651
  598THF    H1110772   4.758   3.419   0.390  0.9074 -0.0055  0.1472
  598THF    H1210773   4.951   3.391   0.225 -0.7799 -1.2210 -0.2392
  598THF    H1310774   4.804   3.371   0.129  1.1159  0.8978 -0.8529
  599THF     O110775   0.643   3.620   3.795  0.4018 -0.4274  0.3817
  599THF     C210776   0.603   3.763   3.805 -0.7750 -0.7265  0.5457
  599THF     C310777   0.763   3.615   3.873  0.3104  0.7269 -0.4383
  599THF     H410778   0.503   3.781   3.766  0.4875  2.2439 -1.6738
  599THF     H510779   0.659   3.821   3.732 -0.1656 -1.5224  0.3627
  599THF     H610780   0.776   3.507   3.883 -2.6222  0.2442 -0.9659
  599THF     H710781   0.850   3.653   3.819  0.3663  1.2105 -0.0098
  599THF     C810782   0.743   3.706   3.988  0.0514 -0.0190  0.0862
  599THF     C910783   0.634   3.803   3.951 -0.0271 -0.0061 -0.0191
  599THF    H1010784   0.831   3.760   4.024 -1.0294  0.6502  1.8021
  599THF    H1110785   0.719   3.642   4.073  1.1379 -0.6638 -0.0639
  599THF    H1210786   0.545   3.791   4.013 -0.3363  2.1743  0.0590
  599THF    H1310787   0.667   3.907   3.941  3.8259 -1.1558 -1.2701
  600THF     O110788   4.101   3.681   5.496 -0.2220 -0.3014 -0.4785
  600THF     C210789   4.106   3.551   5.427 -0.1056  0.4646 -0.0103
  600THF     C310790   3.982   3.753   5.450 -0.0688  0.0506  0.3268
  600THF     H410791   4.165   3.471   5.472 -0.8333  0.6235  1.2819
  600THF     H510792   4.144   3.550   5.325  1.7060 -4.4579  0.4336
  600THF     H610793   3.946   3.811   5.535  0.8890 -2.3447  2.4924
  600THF     H710794   3.999   3.805   5.356 -0.2801  0.0482  0.2861
  600THF     C810795   3.882   3.634   5.431 -0.1351  0.0217 -0.1991
  600THF     C910796   3.965   3.510   5.449 -0.0182  0.7384  0.0613
  600THF    H1010797   3.830   3.631   5.335  2.1389 -1.4436 -1.4877
  600THF    H1110798   3.790   3.624   5.489 -0.3628 -1.2408 -0.7308
  600THF    H1210799   3.952   3.476   5.552 -2.2767 -1.1224 -0.7416
  600THF    H1310800   3.924   3.434   5.383 -0.6190  0.8031  0.3529
  601THF     O110801   1.763   3.294   5.147  0.4158 -0.5437 -0.0044
  601THF     C210802   1.772   3.287   5.296 -0.1154  0.0102  0.3450
  601THF     C310803   1.688   3.414   5.123 -0.4627 -0.1786  0.1200
  601THF     H410804   1.851   3.220   5.331 -1.4500 -2.1129 -0.5669
  601THF     H510805   1.674   3.256   5.332 -0.5345  2.2116  1.3281
  601THF     H610806   1.719   3.472   5.036 -1.4320  2.9584  1.7385
  601THF     H710807   1.584   3.395   5.095 -0.6845 -0.3983  1.0524
  601THF     C810808   1.709   3.509   5.243 -0.3677 -0.3794 -0.0430
  601THF     C910809   1.806   3.432   5.332 -0.3020  0.9702  0.6086
  601THF    H1010810   1.614   3.522   5.294 -0.6708  1.9037 -1.0682
  601THF    H1110811   1.745   3.610   5.220  0.3015 -0.0171  2.3113
  601THF    H1210812   1.907   3.450   5.295  0.8766 -2.0525  1.9958
  601THF    H1310813   1.795   3.456   5.438  1.7222 -0.7881  1.2807
  602THF     O110814   3.514   3.356   0.268 -0.2051  0.4639 -0.0824
  602THF     C210815   3.544   3.464   0.184 -0.6109 -0.0393  0.0279
  602THF     C310816   3.442   3.258   0.199 -0.3270 -0.9687 -0.0168
  602THF     H410817   3.652   3.478   0.190 -0.5778 -0.2486 -0.0465
  602THF     H510818   3.491   3.551   0.221 -0.8940 -0.1304 -0.1602
  602THF     H610819   3.457   3.169   0.259 -1.1711  0.4001  2.3795
  602THF     H710820   3.339   3.293   0.198 -0.5965 -1.7447  0.5484
  602THF     C810821   3.501   3.268   0.064  0.3206 -0.0152 -0.4917
  602THF     C910822   3.507   3.417   0.040 -0.4839 -0.7544 -0.9213
  602THF    H1010823   3.446   3.208  -0.009  2.1553  0.3650 -2.2919
  602THF    H1110824   3.599   3.221   0.074 -0.2160 -0.9558  0.5571
  602THF    H1210825   3.585   3.441  -0.032 -0.9423  1.2238 -0.8068
  602THF    H1310826   3.410   3.459   0.016 -0.4599 -0.8048 -1.1035
  603THF     O110827   0.721   5.424   1.821 -0.0886  0.1447  0.1429
  603THF     C210828   0.711   5.551   1.874 -0.1832  0.9666 -0.4844
  603THF     C310829   0.652   5.422   1.696 -0.9218 -0.6152  0.5249
  603THF     H410830   0.768   5.562   1.966 -1.6373  0.2508  0.5469
  603THF     H510831   0.607   5.546   1.906 -0.2202 -2.8618 -0.7404
  603THF     H610832   0.707   5.339   1.651 -3.5187 -2.3270  0.2799
  603THF     H710833   0.548   5.391   1.698 -1.2350 -0.0361 -2.5029
  603THF     C810834   0.676   5.565   1.640 -1.1211 -0.1092 -0.5275
  603THF     C910835   0.748   5.636   1.756  0.4687 -0.0345 -0.1214
  603THF    H1010836   0.586   5.614   1.604 -1.3136  0.0238  0.1178
  603THF    H1110837   0.743   5.548   1.556 -0.0406 -2.3296  0.7011
  603THF    H1210838   0.855   5.634   1.735  0.6808  0.0909  0.9116
  603THF    H1310839   0.715   5.740   1.762  0.9800  0.1016  0.4390
  604THF     O110840   3.564   1.616   2.036  0.1746  0.6017  0.2556
  604THF     C210841   3.513   1.740   2.090 -0.5135 -0.5141 -0.2133
  604THF     C310842   3.621   1.639   1.911 -0.3304  2.2354  0.0745
  604THF     H410843   3.556   1.766   2.187 -0.7186  2.1954 -0.7714
  604THF     H510844   3.405   1.728   2.097 -0.4154 -1.3050  0.1353
  604THF     H610845   3.729   1.636   1.926 -0.5843 -0.1265  2.1272
  604THF     H710846   3.599   1.556   1.843 -1.0725  1.8218  0.8037
  604THF     C810847   3.554   1.764   1.864  0.4368  0.0758  0.9838
  604THF     C910848   3.557   1.838   1.992  0.8955  0.6501  0.2414
  604THF    H1010849   3.451   1.754   1.831  1.0377  0.9702 -1.3289
  604THF    H1110850   3.609   1.818   1.786 -0.5801  0.7740  0.7312
  604THF    H1210851   3.663   1.857   2.012  0.9299 -0.4269  1.2195
  604THF    H1310852   3.496   1.928   1.994  0.1941  0.2117 -0.6538
  605THF     O110853   2.281   5.220   4.589  0.4855  0.1520  0.0099
  605THF     C210854   2.302   5.353   4.569 -0.3414 -0.1517 -0.3795
  605THF     C310855   2.271   5.199   4.728  0.2776 -0.1408 -0.0588
  605THF     H410856   2.204   5.395   4.547 -1.3513 -2.8528 -1.4780
  605THF     H510857   2.359   5.368   4.478  0.8717 -0.7554  0.2601
  605THF     H610858   2.165   5.207   4.755  0.2417 -0.5486 -0.0745
  605THF     H710859   2.295   5.097   4.756 -1.3415 -0.1543  1.5536
  605THF     C810860   2.358   5.309   4.789  0.0189  1.0207  0.1016
  605THF     C910861   2.368   5.412   4.688  0.3481  0.1138  0.5272
  605THF    H1010862   2.449   5.254   4.812 -0.7290 -0.6605 -0.6950
  605THF    H1110863   2.308   5.339   4.881 -3.0508 -0.1315 -1.0515
  605THF    H1210864   2.327   5.511   4.708 -0.9448 -0.4560  0.8000
  605THF    H1310865   2.469   5.429   4.650 -0.2634  0.4388 -1.0028
  606THF     O110866   5.209   2.114   4.632 -0.3527  0.1417 -0.1601
  606THF     C210867   5.125   2.046   4.727  0.7129 -0.1085  0.4816
  606THF     C310868   5.337   2.134   4.703  0.9905 -0.3111 -0.0208
  606THF     H410869   5.160   1.944   4.720  3.5753  0.8359 -0.2788
  606THF     H510870   5.019   2.045   4.702  0.7042 -0.0522  0.5165
  606THF     H610871   5.402   2.054   4.667  0.5453 -0.6268 -0.1235
  606THF     H710872   5.378   2.235   4.692 -3.3919  1.9946  2.3775
  606THF     C810873   5.314   2.110   4.857  0.6927  0.1406 -0.5461
  606THF     C910874   5.163   2.110   4.862  0.3846 -0.0703 -0.1013
  606THF    H1010875   5.362   2.180   4.925  0.4522 -1.0825  0.9266
  606THF    H1110876   5.359   2.013   4.880 -0.1992 -0.0364  0.5326
  606THF    H1210877   5.126   2.052   4.947  1.6552 -0.9371 -0.1101
  606THF    H1310878   5.117   2.208   4.877  0.4621 -0.0048 -0.2871
  607THF     O110879   2.593   0.690   3.340 -0.2404 -0.3817 -0.2702
  607THF     C210880   2.629   0.615   3.456 -0.1326  0.5870  0.3239
  607THF     C310881   2.456   0.663   3.305 -0.0623 -0.2715 -0.3378
  607THF     H410882   2.714   0.660   3.507  0.7621 -1.0276  0.2972
  607THF     H510883   2.645   0.509   3.437  0.5083  0.4331  1.6249
  607THF     H610884   2.405   0.732   3.238 -0.7183  0.7804  1.1962
  607THF     H710885   2.445   0.560   3.273 -1.3638 -0.6614  1.2516
  607THF     C810886   2.388   0.675   3.440 -0.2364  0.2001 -0.1242
  607THF     C910887   2.497   0.625   3.532  0.0266 -0.0233 -0.3097
  607THF    H1010888   2.306   0.603   3.433 -1.1320  1.2362 -0.4372
  607THF    H1110889   2.350   0.774   3.462 -0.5356 -0.1315  0.9238
  607THF    H1210890   2.508   0.695   3.615  0.8853 -0.6737  0.1427
  607THF    H1310891   2.459   0.530   3.569 -1.4578  0.4192 -0.6169
  608THF     O110892   1.957   3.665   1.869  0.1039 -0.0239 -0.2463
  608THF     C210893   1.885   3.561   1.805  0.4946  0.6267  0.0443
  608THF     C310894   2.069   3.692   1.789 -0.6908  0.1052  0.1649
  608THF     H410895   1.783   3.552   1.843  0.5574 -2.3383 -0.2903
  608THF     H510896   1.922   3.459   1.816  0.7280  0.7484  0.4235
  608THF     H610897   2.102   3.795   1.777 -1.3532  0.6388  2.4374
  608THF     H710898   2.163   3.657   1.831  0.3918  1.4161 -1.0502
  608THF     C810899   2.040   3.647   1.646  0.0119  0.6691 -0.1384
  608THF     C910900   1.899   3.599   1.658  0.9154  0.2068 -0.3762
  608THF    H1010901   2.105   3.564   1.622  3.0788  2.2051  2.0530
  608THF    H1110902   2.052   3.723   1.568  0.0103 -0.0393 -0.8342
  608THF    H1210903   1.825   3.676   1.634  0.5801 -0.3506 -1.1863
  608THF    H1310904   1.881   3.510   1.598 -2.2088 -0.8887  1.8798
  609THF     O110905   3.644   3.467   1.583  0.1497 -0.2251  0.3077
  609THF     C210906   3.712   3.425   1.698 -0.3937  0.5844 -0.1007
  609THF     C310907   3.565   3.583   1.616 -0.7545  0.0900 -0.5900
  609THF     H410908   3.804   3.372   1.671 -0.2481  1.7021 -2.0071
  609THF     H510909   3.649   3.357   1.755  0.3913  1.1471  1.5181
  609THF     H610910   3.583   3.656   1.537 -0.7972 -0.2903 -0.9567
  609THF     H710911   3.460   3.555   1.607 -0.8431  0.3644 -0.4321
  609THF     C810912   3.609   3.632   1.750  0.3457 -0.3857 -1.1687
  609THF     C910913   3.739   3.555   1.768 -0.6301  0.6410 -0.4251
  609THF    H1010914   3.535   3.587   1.816 -0.5884 -0.3819 -2.1772
  609THF    H1110915   3.612   3.740   1.767  2.1284 -0.1954 -2.4330
  609THF    H1210916   3.813   3.611   1.711 -0.6761 -0.7246 -1.8753
  609THF    H1310917   3.767   3.549   1.874  0.7777 -0.2520 -0.8157
  610THF     O110918   3.690   1.398   1.261  0.2630 -0.2176 -0.3615
  610THF     C210919   3.718   1.515   1.346 -0.3104  0.3651  0.6008
  610THF     C310920   3.552   1.377   1.261  0.2923  0.1116 -0.1673
  610THF     H410921   3.701   1.609   1.293  1.7374  1.7889  2.2880
  610THF     H510922   3.817   1.512   1.391  0.1032  3.4832  0.1234
  610THF     H610923   3.516   1.427   1.171  2.6276  0.8175 -0.7809
  610THF     H710924   3.541   1.269   1.256  1.0673 -0.1504  2.4962
  610THF     C810925   3.493   1.441   1.387  0.2151 -0.2662  0.3377
  610THF     C910926   3.615   1.509   1.458 -0.7174 -0.4274  0.2117
  610THF    H1010927   3.459   1.374   1.465  1.7790  0.1599  1.4375
  610THF    H1110928   3.422   1.523   1.373  2.5137  1.8129 -0.0107
  610THF    H1210929   3.572   1.603   1.494  0.7139  0.7672 -1.0626
  610THF    H1310930   3.653   1.440   1.532 -1.7450 -0.6320  0.5642
  611THF     O110931   4.766   4.956   2.171 -0.6129 -0.3582  0.8060
  611THF     C210932   4.838   5.081   2.168 -0.6992 -0.0799 -0.5180
  611THF     C310933   4.849   4.859   2.234 -0.1735 -0.2384  0.4544
  611THF     H410934   4.767   5.164   2.168  1.1956  1.6641  1.4753
  611THF     H510935   4.901   5.093   2.080  0.8742 -1.5077  0.3710
  611THF     H610936   4.788   4.777   2.270  0.3063 -0.5597  0.5394
  611THF     H710937   4.934   4.826   2.175  0.9168  0.1789  1.7379
  611THF     C810938   4.911   4.944   2.341 -0.3260 -0.9313  0.3385
  611THF     C910939   4.936   5.082   2.294  0.1317 -0.0902 -0.2011
  611THF    H1010940   4.993   4.888   2.387  1.2582 -0.6004 -1.9557
  611THF    H1110941   4.830   4.945   2.415  0.2900 -2.1157  1.0641
  611THF    H1210942   4.911   5.159   2.368 -1.0198  0.9712 -1.6154
  611THF    H1310943   5.044   5.083   2.279  0.0139  0.4724 -1.0760
  612THF     O110944   2.612   3.202   3.401 -0.5523 -0.5172 -0.0957
  612THF     C210945   2.472   3.187   3.388 -1.0805  0.1545 -0.1947
  612THF     C310946   2.641   3.324   3.339  0.2653 -0.0574 -0.2050
  612THF     H410947   2.440   3.105   3.453  0.1292 -0.1816  0.0078
  612THF     H510948   2.452   3.156   3.285 -1.3473  1.1213 -0.4417
  612THF     H610949   2.739   3.357   3.375 -0.5535  1.2799  0.9141
  612THF     H710950   2.654   3.311   3.232  1.6211  0.1902 -0.0914
  612THF     C810951   2.529   3.419   3.381 -0.5962  0.5055 -0.3908
  612THF     C910952   2.422   3.322   3.426  0.4789  0.0311 -0.5214
  612THF    H1010953   2.497   3.469   3.289  0.5082  2.6664  0.3157
  612THF    H1110954   2.565   3.500   3.444 -0.5728 -0.8780  1.4539
  612THF    H1210955   2.405   3.312   3.533  1.2444 -0.8346 -0.4689
  612THF    H1310956   2.328   3.350   3.377 -0.5006 -0.6272  0.9243
  613THF     O110957   4.020   3.249   0.524 -0.1605 -0.4250 -0.4571
  613THF     C210958   3.898   3.301   0.565  0.0984  0.1317 -0.1929
  613THF     C310959   4.000   3.155   0.417  0.7385 -0.4230 -0.0565
  613THF     H410960   3.916   3.389   0.627 -1.3932 -0.1369  0.6543
  613THF     H510961   3.859   3.226   0.633 -0.5447  2.4555  2.1504
  613THF     H610962   4.091   3.133   0.363  1.2805  3.2082 -0.8296
  613THF     H710963   3.948   3.061   0.437 -0.3823  0.4719  1.4376
  613THF     C810964   3.905   3.244   0.328  0.2686  0.5520  0.1537
  613THF     C910965   3.819   3.324   0.429  0.4656 -0.2708  0.1695
  613THF    H1010966   3.843   3.193   0.254  2.0754 -0.3056 -0.8463
  613THF    H1110967   3.957   3.315   0.264 -0.0153 -1.1064 -2.0243
  613THF    H1210968   3.789   3.426   0.402 -0.9217 -0.8650 -0.6429
  613THF    H1310969   3.726   3.268   0.440  0.4047 -0.6748 -2.0744
  614THF     O110970   2.188   0.304   2.527  0.1156  0.8142  0.0622
  614THF     C210971   2.117   0.212   2.450  0.4816 -0.3413  0.1644
  614THF     C310972   2.094   0.402   2.568  0.4827  0.6667  0.5434
  614THF     H410973   2.078   0.133   2.515 -1.0103 -0.7713 -1.1835
  614THF     H510974   2.188   0.166   2.381  1.2409  0.0472  0.6782
  614THF     H610975   2.046   0.350   2.650  1.8481 -0.6975  0.5141
  614THF     H710976   2.146   0.490   2.604  1.2342  0.6305 -0.3856
  614THF     C810977   2.001   0.434   2.438 -0.1284  0.0602 -0.1881
  614THF     C910978   2.005   0.290   2.382  0.4209  0.0779  0.2400
  614THF    H1010979   2.040   0.501   2.361  1.6461  2.4175  2.5146
  614THF    H1110980   1.900   0.462   2.467  0.0599  0.2874  0.2594
  614THF    H1210981   1.914   0.230   2.391 -0.3141  1.3354  1.7409
  614THF    H1310982   2.013   0.283   2.274 -1.1968  0.2394  0.0806
  615THF     O110983   4.950   5.479   2.143  0.3565  0.2834 -0.2157
  615THF     C210984   4.994   5.440   2.011 -0.0654 -0.8935  0.4494
  615THF     C310985   5.059   5.417   2.218  0.2423 -0.2922  0.1062
  615THF     H410986   4.929   5.492   1.940  0.2506 -2.4124 -1.0059
  615THF     H510987   4.968   5.335   1.998 -1.0567 -0.8875  2.0245
  615THF     H610988   5.054   5.448   2.322  1.9612  2.2855 -0.4780
  615THF     H710989   5.054   5.309   2.212 -0.4514 -0.2009 -1.4033
  615THF     C810990   5.181   5.461   2.156  0.9083 -0.6312  0.3645
  615THF     C910991   5.148   5.456   2.009 -0.7690 -0.8388 -0.4216
  615THF    H1010992   5.274   5.415   2.189  2.6848  2.0155 -0.5756
  615THF    H1110993   5.194   5.565   2.186 -1.8818 -0.2850  0.6997
  615THF    H1210994   5.177   5.547   1.957 -2.0124 -1.4455 -2.3025
  615THF    H1310995   5.197   5.370   1.963  3.5791  0.9167  0.4188
  616THF     O110996   0.349   1.145   4.933 -0.3194 -0.3429  0.0846
  616THF     C210997   0.291   1.153   5.060  0.7910 -1.1290  0.3594
  616THF     C310998   0.471   1.062   4.933 -0.0442 -0.3551  0.2429
  616THF     H410999   0.191   1.115   5.040  0.9803 -0.8425 -1.2506
  616THF     H511000   0.298   1.253   5.105  2.2128 -0.8223 -0.5047
  616THF     H611001   0.452   0.961   4.895  1.1462 -0.6562  0.4168
  616THF     H711002   0.545   1.115   4.874 -0.1048 -0.4105  0.1154
  616THF     C811003   0.512   1.056   5.086  0.6056  0.4222  0.3778
  616THF     C911004   0.374   1.052   5.154 -0.5505 -0.3667  0.4653
  616THF    H1011005   0.576   1.142   5.107  1.1296 -0.2045  1.4069
  616THF    H1111006   0.564   0.962   5.103 -1.4042 -0.4389  2.3531
  616THF    H1211007   0.335   0.950   5.162  1.4084 -1.0681  1.8504
  616THF    H1311008   0.386   1.096   5.253 -0.4958  0.0291  0.2831
  617THF     O111009   1.076   5.342   1.036  0.3598 -0.2257 -0.2528
  617THF     C211010   1.102   5.436   1.145 -0.3018  0.0192  0.5820
  617THF     C311011   1.186   5.249   1.037  0.0419  1.1035  1.1366
  617THF     H411012   1.057   5.401   1.238 -0.3833  3.0098  1.7745
  617THF     H511013   1.062   5.535   1.121 -0.7563 -0.1358  0.6857
  617THF     H611014   1.172   5.170   1.112  2.9462 -1.4898 -0.8184
  617THF     H711015   1.202   5.209   0.937  0.4142  1.3511  1.0958
  617THF     C811016   1.310   5.329   1.069  1.0249  0.3947  0.2098
  617THF     C911017   1.257   5.443   1.162 -0.5052  0.0468 -0.1247
  617THF    H1011018   1.350   5.383   0.983  0.4964  0.9932  0.3329
  617THF    H1111019   1.383   5.262   1.115  0.8572  0.2265  0.2308
  617THF    H1211020   1.273   5.403   1.262 -3.1585 -0.2964  0.2453
  617THF    H1311021   1.307   5.538   1.146 -0.3434  0.3630  1.9963
  618THF     O111022   3.861   0.145   5.471 -1.0132 -0.0423 -0.1734
  618THF     C211023   3.843   0.226   5.356 -0.3855  0.4235  0.7788
  618THF     C311024   3.939   0.215   5.563  0.4341  0.3854  0.1262
  618THF     H411025   3.762   0.297   5.373  0.0704  0.8591  1.1732
  618THF     H511026   3.812   0.175   5.265  2.9360 -1.1969  0.4028
  618THF     H611027   3.881   0.235   5.653 -2.5019  3.5244 -2.2177
  618THF     H711028   4.018   0.150   5.600 -1.1079  0.5993  4.3553
  618THF     C811029   4.003   0.339   5.493 -0.0972  0.2072  0.4922
  618THF     C911030   3.975   0.317   5.341 -0.2350  0.5169 -0.4171
  618THF    H1011031   4.110   0.341   5.512  0.4732 -2.1990 -1.8272
  618THF    H1111032   3.967   0.433   5.534  0.3096  0.1118  1.0785
  618THF    H1211033   3.959   0.407   5.282 -1.4891 -1.0118 -2.5768
  618THF    H1311034   4.045   0.250   5.291 -0.0892 -0.0410  0.5036
  619THF     O111035   4.964   3.101   5.473  0.3570  0.0210 -0.1166
  619THF     C211036   5.014   3.225   5.413 -0.4905  0.5035 -0.1318
  619THF     C311037   4.998   2.985   5.386  0.3014 -0.0806 -0.3385
  619THF     H411038   5.096   3.265   5.472  1.5297 -0.3133 -2.2139
  619THF     H511039   4.932   3.296   5.409 -2.2536 -1.4197  0.0346
  619THF     H611040   5.029   2.900   5.446 -0.5314  0.1065  0.3767
  619THF     H711041   4.911   2.955   5.327  0.0275  0.0648 -0.0089
  619THF     C811042   5.108   3.044   5.294  0.2791 -0.0995 -0.2248
  619THF     C911043   5.067   3.188   5.276  0.4011 -0.6830  0.2019
  619THF    H1011044   5.107   2.982   5.204 -0.4634 -1.3006  0.5703
  619THF    H1111045   5.203   3.040   5.347  1.4206  2.1251 -1.9256
  619THF    H1211046   5.145   3.260   5.252 -0.3123  0.0616  0.0325
  619THF    H1311047   4.984   3.212   5.209  1.2700  3.8433  0.3800
  620THF     O111048   3.153   4.617   5.125 -0.0316  0.3251  0.7807
  620THF     C211049   3.078   4.549   5.226 -0.3777 -0.1040  1.0387
  620THF     C311050   3.254   4.687   5.191 -0.1561 -0.1892 -0.0375
  620THF     H411051   3.010   4.474   5.186 -0.8251  0.2197  1.1866
  620THF     H511052   3.017   4.623   5.277 -2.1351  0.1351 -1.2733
  620THF     H611053   3.332   4.727   5.127  1.0922 -2.1630  0.1604
  620THF     H711054   3.205   4.768   5.244 -1.5362  0.5132 -2.2264
  620THF     C811055   3.296   4.577   5.290 -0.1666 -0.0817  0.2415
  620THF     C911056   3.179   4.486   5.325  0.0622 -0.1424 -0.1907
  620THF    H1011057   3.347   4.623   5.375  1.3703  0.6556 -1.0299
  620THF    H1111058   3.374   4.515   5.246 -0.7660 -0.4059 -0.3807
  620THF    H1211059   3.200   4.379   5.314  0.6517 -0.2035  1.2875
  620THF    H1311060   3.139   4.496   5.425 -1.4657  0.5621 -0.8400
  621THF     O111061   0.144   0.144   4.199  0.0396  0.2073 -0.0963
  621THF     C211062   0.197   0.269   4.233  0.8376  0.3767 -0.3714
  621THF     C311063   0.229   0.086   4.099 -0.0193 -0.1951  0.2521
  621THF     H411064   0.160   0.296   4.332 -4.0822 -0.0341 -1.8268
  621THF     H511065   0.173   0.339   4.154  0.3946 -1.0357 -1.5358
  621THF     H611066   0.211  -0.021   4.096  1.6934 -0.4978 -1.8853
  621THF     H711067   0.194   0.128   4.005 -2.4500  0.3819  1.3325
  621THF     C811068   0.369   0.131   4.138 -0.6070 -0.7246  0.0158
  621THF     C911069   0.346   0.251   4.227 -0.4382 -0.1266  0.1855
  621THF    H1011070   0.438   0.149   4.055 -0.2450 -1.8611  0.0524
  621THF    H1111071   0.415   0.052   4.199  0.5660 -1.3764 -1.6243
  621THF    H1211072   0.391   0.228   4.323  2.4016  2.2757 -0.4424
  621THF    H1311073   0.383   0.350   4.199 -4.2919  1.8434  1.1985
  622THF     O111074   1.278   0.649   0.392 -0.4566 -0.8781 -0.1221
  622THF     C211075   1.137   0.635   0.399  0.0748  0.2602 -0.2849
  622THF     C311076   1.324   0.509   0.404 -0.0039  0.1617  0.3965
  622THF     H411077   1.078   0.724   0.373 -0.0544  0.4053  0.4915
  622THF     H511078   1.110   0.600   0.499  0.7014 -0.7838 -0.4695
  622THF     H611079   1.428   0.508   0.371 -0.8684 -0.3497 -2.7109
  622THF     H711080   1.309   0.472   0.505 -1.4424  1.8593  0.8443
  622THF     C811081   1.232   0.438   0.306 -0.2490  0.1758  0.6545
  622THF     C911082   1.105   0.528   0.301  0.2203  0.5439 -0.5016
  622THF    H1011083   1.214   0.338   0.347 -1.5993 -0.0532 -0.4559
  622THF    H1111084   1.274   0.425   0.207 -1.1639 -0.3863  0.3311
  622THF    H1211085   1.087   0.575   0.204 -1.0813 -1.5012 -1.2964
  622THF    H1311086   1.016   0.473   0.330  1.3372 -1.0353  0.0709
  623THF     O111087   0.959   4.037   4.305  0.1078 -0.0410 -0.0007
  623THF     C211088   0.867   3.979   4.216  0.3055  0.8203 -0.2789
  623THF     C311089   0.899   4.050   4.431  0.3599 -0.3402 -0.6489
  623THF     H411090   0.864   3.870   4.218 -2.6378  0.7339 -2.7421
  623THF     H511091   0.879   4.001   4.110  2.3513  1.0123 -0.0429
  623THF     H611092   0.904   3.962   4.496  1.5073 -0.6188 -1.0952
  623THF     H711093   0.939   4.140   4.476  2.9699 -0.6834 -2.0704
  623THF     C811094   0.748   4.058   4.407  0.1885  0.0844 -0.1296
  623THF     C911095   0.738   4.044   4.254  0.7742 -0.3148 -0.2773
  623THF    H1011096   0.697   4.152   4.423  0.2881  0.1179 -0.0060
  623THF    H1111097   0.690   3.983   4.461 -1.7114  0.4758 -1.5444
  623THF    H1211098   0.649   3.989   4.223 -0.2480  1.8847 -1.4518
  623THF    H1311099   0.730   4.143   4.210  0.6694 -0.4716 -0.6188
  624THF     O111100   0.752   0.602   3.371 -0.2167  0.2568 -0.0794
  624THF     C211101   0.829   0.648   3.264  0.2014  0.2255  0.1555
  624THF     C311102   0.847   0.529   3.451 -0.1758 -0.1549 -0.3276
  624THF     H411103   0.906   0.711   3.311  1.1292 -1.0015  0.3272
  624THF     H511104   0.778   0.702   3.184 -1.1816  0.4069  1.1339
  624THF     H611105   0.925   0.593   3.494  0.0774 -1.2242  0.8792
  624THF     H711106   0.798   0.481   3.536 -1.7551  1.8901  0.0059
  624THF     C811107   0.922   0.438   3.352  0.1739 -0.9443  0.3506
  624THF     C911108   0.907   0.524   3.219  0.0030  0.0317 -0.3112
  624THF    H1011109   0.870   0.343   3.338  1.6287 -1.4343 -2.6817
  624THF    H1111110   1.025   0.420   3.383 -0.3130 -1.7772  1.5726
  624THF    H1211111   1.008   0.548   3.186  0.0783  2.7165  1.4682
  624THF    H1311112   0.848   0.471   3.144  0.1407 -0.8864  0.2203
  625THF     O111113   2.796   3.169   1.812  0.2727 -0.3084  0.8254
  625THF     C211114   2.789   3.230   1.948 -0.4206 -0.1405  0.4694
  625THF     C311115   2.752   3.038   1.816  0.7774  0.7475  0.1297
  625THF     H411116   2.734   3.323   1.933 -0.9991 -0.4946  0.3786
  625THF     H511117   2.892   3.247   1.980  0.5712 -2.0372 -1.4108
  625THF     H611118   2.712   2.998   1.723  0.3876 -0.8105  0.9314
  625THF     H711119   2.835   2.972   1.839  1.1306  1.1810  0.1125
  625THF     C811120   2.648   3.038   1.930 -0.0779 -0.3456 -0.2564
  625THF     C911121   2.709   3.131   2.026 -0.1940 -0.1084  0.4489
  625THF    H1011122   2.642   2.937   1.970  0.1135  0.3365  1.5581
  625THF    H1111123   2.552   3.071   1.888  0.9745  1.4171 -1.4356
  625THF    H1211124   2.644   3.173   2.102 -0.7208 -1.0850  0.5478
  625THF    H1311125   2.787   3.075   2.077  0.7700 -0.1259 -0.9859
  626THF     O111126   4.937   5.222   1.636  0.6335  0.6372 -0.2168
  626THF     C211127   4.814   5.294   1.608 -0.2389 -0.8231  0.2580
  626THF     C311128   4.887   5.092   1.672  0.1591 -0.1161 -0.2171
  626THF     H411129   4.780   5.265   1.509 -0.1787  0.1881 -0.0692
  626THF     H511130   4.836   5.401   1.610 -2.4394 -0.2910 -1.3886
  626THF     H611131   4.865   5.047   1.575 -1.3116 -2.4546  1.1014
  626THF     H711132   4.958   5.020   1.713 -0.9284 -1.1805 -0.1339
  626THF     C811133   4.767   5.109   1.764 -0.1398 -0.1966 -0.2296
  626THF     C911134   4.713   5.246   1.715  0.1216  1.2991  0.2281
  626THF    H1011135   4.802   5.127   1.866  2.2142 -0.0735 -1.0076
  626THF    H1111136   4.696   5.026   1.759 -1.0127  0.2474  2.6307
  626THF    H1211137   4.612   5.245   1.674  0.2072  0.5410  0.0212
  626THF    H1311138   4.701   5.309   1.803  1.3822 -0.1831  1.5022
  627THF     O111139   2.949   3.476   5.232  0.6360 -0.1366  0.1241
  627THF     C211140   2.982   3.401   5.112  0.9097  1.0335 -0.9957
  627THF     C311141   3.065   3.524   5.291 -0.2127  0.0332  0.0553
  627THF     H411142   2.989   3.460   5.021 -1.3875  0.3637 -1.6470
  627THF     H511143   2.910   3.325   5.084  1.4995  0.3305 -0.6391
  627THF     H611144   3.086   3.620   5.244  0.2918 -0.2521 -0.3059
  627THF     H711145   3.048   3.538   5.398  1.6892  1.4310  0.2332
  627THF     C811146   3.175   3.422   5.257 -0.9595  0.3014  0.3603
  627THF     C911147   3.113   3.329   5.154  0.0907 -0.1236  0.0358
  627THF    H1011148   3.226   3.383   5.345 -2.5986  0.8599  1.6200
  627THF    H1111149   3.252   3.466   5.194 -1.1587  1.3305  0.8001
  627THF    H1211150   3.174   3.312   5.065 -0.8540 -2.6987 -0.2125
  627THF    H1311151   3.082   3.233   5.197  0.2789 -2.0276 -3.6424
  628THF     O111152   0.336   0.187   0.567  0.2088  0.0495 -0.1800
  628THF     C211153   0.223   0.108   0.569 -0.1835 -0.3246 -0.0480
  628THF     C311154   0.451   0.102   0.601  0.5735 -0.3596 -0.5530
  628THF     H411155   0.131   0.150   0.529  0.4870  1.6213  0.3408
  628THF     H511156   0.198   0.078   0.671  1.3387 -0.5816  0.2699
  628THF     H611157   0.549   0.140   0.573  0.4180  0.5813  0.1252
  628THF     H711158   0.454   0.077   0.707  0.1401  3.4062  0.4625
  628THF     C811159   0.413  -0.025   0.529 -0.9360  0.3073  0.6221
  628THF     C911160   0.266  -0.017   0.499 -0.0151  0.0427 -0.8670
  628THF    H1011161   0.441  -0.112   0.587 -0.0755 -0.1172 -0.3816
  628THF    H1111162   0.472  -0.021   0.437 -2.2251  0.1050 -0.2381
  628THF    H1211163   0.234  -0.032   0.396 -5.7402 -1.1008  0.7122
  628THF    H1311164   0.202  -0.095   0.542 -2.8587  1.3060 -2.5182
  629THF     O111165   3.132   5.414   3.658  0.3662 -0.0747 -0.2395
  629THF     C211166   3.163   5.274   3.665  0.1728 -0.2121 -0.6500
  629THF     C311167   3.204   5.476   3.768  0.4448 -0.1291 -0.2250
  629THF     H411168   3.141   5.226   3.569 -3.6395  1.8709 -0.9987
  629THF     H511169   3.115   5.221   3.747  0.3286 -0.0371 -0.4457
  629THF     H611170   3.208   5.585   3.759  0.8643  0.3254  3.6826
  629THF     H711171   3.145   5.460   3.857  0.3570 -0.2656 -0.3085
  629THF     C811172   3.335   5.390   3.777  0.1168 -0.1520 -0.3966
  629THF     C911173   3.309   5.267   3.692 -0.5311 -0.2432  0.7683
  629THF    H1011174   3.360   5.369   3.881 -0.2605 -2.7583 -0.7735
  629THF    H1111175   3.421   5.443   3.738  0.0998 -0.1023 -0.3674
  629THF    H1211176   3.360   5.290   3.598  0.9811  0.8881  1.8028
  629THF    H1311177   3.347   5.173   3.733 -0.0558 -0.5470 -0.3258
  630THF     O111178   1.528   1.957   3.223  0.0622  0.1732  0.1206
  630THF     C211179   1.405   2.016   3.276 -0.1127  0.1485  0.6171
  630THF     C311180   1.564   1.848   3.312  0.5840 -0.2702  0.1559
  630THF     H411181   1.347   2.050   3.190  2.6632  2.0076 -0.6560
  630THF     H511182   1.434   2.107   3.328 -0.0865  2.0106 -2.4304
  630THF     H611183   1.611   1.772   3.250  0.8408 -0.1412  0.1895
  630THF     H711184   1.624   1.875   3.399 -0.2360 -0.7980  0.9047
  630THF     C811185   1.430   1.793   3.366 -0.1351  0.2290  0.2227
  630THF     C911186   1.335   1.912   3.363  0.8896 -0.5655 -0.0903
  630THF    H1011187   1.436   1.760   3.470 -0.3905  2.2414  0.9370
  630THF    H1111188   1.396   1.707   3.310 -0.1577 -0.6686  1.5765
  630THF    H1211189   1.244   1.881   3.311  0.8857  1.2640 -1.2896
  630THF    H1311190   1.322   1.959   3.460  1.2914  1.4044 -0.9262
  631THF     O111191   1.850   1.653   0.499  0.3459 -0.1843 -0.4525
  631THF     C211192   1.725   1.656   0.432  0.2858  0.0531 -0.1830
  631THF     C311193   1.833   1.584   0.627  0.3495  0.1585 -0.8321
  631THF     H411194   1.721   1.555   0.389  1.7728  0.2159 -0.7416
  631THF     H511195   1.728   1.734   0.355  0.9432  0.9589  0.7379
  631THF     H611196   1.828   1.475   0.623 -2.9589  0.1197  0.7834
  631THF     H711197   1.906   1.626   0.696 -0.2888  0.5961 -0.4142
  631THF     C811198   1.693   1.624   0.669 -0.6783  0.4097 -0.0813
  631THF     C911199   1.630   1.677   0.545  0.2702  0.0707 -0.7121
  631THF    H1011200   1.692   1.708   0.739 -2.0364  0.1517  0.2476
  631THF    H1111201   1.642   1.543   0.721  2.4551 -1.5814  0.1682
  631THF    H1211202   1.536   1.630   0.516  0.5400 -0.4889 -0.6785
  631THF    H1311203   1.598   1.781   0.560  0.9771  0.1244  0.5034
  632THF     O111204   1.270   4.848   1.825  0.3884  0.0626 -0.3936
  632THF     C211205   1.345   4.732   1.787 -0.7552 -0.1207 -0.1910
  632THF     C311206   1.132   4.827   1.818 -0.1025 -0.3743 -0.0731
  632THF     H411207   1.377   4.681   1.878  1.8265 -1.0043 -1.4922
  632THF     H511208   1.427   4.756   1.718 -0.9031  1.8734  0.2637
  632THF     H611209   1.089   4.783   1.908  1.2637  1.6798  1.6935
  632THF     H711210   1.090   4.926   1.797  2.6242  0.3662 -2.7404
  632THF     C811211   1.120   4.750   1.689 -0.3507  0.1118  0.2967
  632THF     C911212   1.244   4.663   1.707 -0.3788 -0.6094  0.6829
  632THF    H1011213   1.131   4.813   1.601  1.7157 -0.0197  0.3956
  632THF    H1111214   1.030   4.688   1.690 -0.9595  0.9233 -1.2434
  632THF    H1211215   1.210   4.574   1.759  0.6609 -1.5434 -0.1895
  632THF    H1311216   1.288   4.631   1.613  1.1123  0.8658  0.8275
  633THF     O111217   0.964   1.631   3.289 -0.1136  0.3284 -0.6336
  633THF     C211218   0.914   1.505   3.336  0.0942  0.3238 -0.1684
  633THF     C311219   0.932   1.736   3.379  0.3036 -0.2967 -0.2578
  633THF     H411220   0.974   1.420   3.304  0.5894  0.3948  0.5469
  633THF     H511221   0.823   1.500   3.276  0.7655  0.9419 -1.2883
  633THF     H611222   1.004   1.818   3.368  0.4532 -0.7341 -3.7545
  633THF     H711223   0.829   1.771   3.371  0.0263 -0.5337  1.8327
  633THF     C811224   0.940   1.669   3.515  0.2754 -0.2238  0.1442
  633THF     C911225   0.901   1.525   3.491 -0.3073 -0.8278 -0.0141
  633THF    H1011226   0.875   1.708   3.594 -0.0630 -0.2903 -0.1005
  633THF    H1111227   1.043   1.686   3.547  0.4061 -1.0733  0.1933
  633THF    H1211228   0.963   1.445   3.531  0.0639 -2.0266 -2.7405
  633THF    H1311229   0.797   1.522   3.524 -0.9915  1.2502 -1.7395
  634THF     O111230   4.556   1.511   0.298  0.4282  0.2786  0.4225
  634THF     C211231   4.529   1.651   0.294 -0.4195 -0.2177  0.5485
  634THF     C311232   4.505   1.462   0.420  0.4101 -0.0355  0.3439
  634THF     H411233   4.427   1.677   0.267  0.1391  3.7198  1.6827
  634THF     H511234   4.585   1.705   0.217 -2.6716  1.6127  0.0915
  634THF     H611235   4.405   1.425   0.394  1.1219 -2.1649  0.4577
  634THF     H711236   4.550   1.366   0.445  0.1851 -0.9165 -2.3584
  634THF     C811237   4.521   1.578   0.524  0.0492  0.0838 -0.2366
  634THF     C911238   4.566   1.693   0.436 -0.4327  0.4450  0.4809
  634THF    H1011239   4.597   1.548   0.596 -1.2027 -3.5419 -0.1713
  634THF    H1111240   4.427   1.590   0.578 -0.4793  0.4864 -1.2229
  634THF    H1211241   4.523   1.790   0.461 -2.0140  0.2458 -1.2749
  634THF    H1311242   4.675   1.700   0.431 -0.2708 -2.1686 -2.1837
  635THF     O111243   3.119   4.697   3.478 -0.8559 -0.0051  0.1506
  635THF     C211244   3.127   4.562   3.468 -0.6057 -0.1028 -0.6123
  635THF     C311245   3.123   4.754   3.343 -0.3703 -0.0548  0.5364
  635THF     H411246   3.080   4.530   3.561  1.6919 -0.5125  0.4823
  635THF     H511247   3.233   4.537   3.465 -0.0296  2.1664 -3.4589
  635THF     H611248   3.062   4.844   3.336 -0.4459 -0.2374 -2.7370
  635THF     H711249   3.224   4.771   3.307  0.5487 -1.8501  2.1000
  635THF     C811250   3.068   4.645   3.258  0.9518  0.1532 -0.1473
  635THF     C911251   3.037   4.531   3.344 -0.6957  0.0572 -0.7178
  635THF    H1011252   3.140   4.604   3.188 -1.0017 -0.9738 -1.6041
  635THF    H1111253   2.979   4.677   3.203  1.0468  1.2848  0.3153
  635THF    H1211254   2.931   4.536   3.372 -0.4303  1.0352  0.1942
  635THF    H1311255   3.061   4.435   3.299  2.5116  0.7487 -0.7121
  636THF     O111256   3.852   2.807   3.951  0.3010  0.2433 -0.5539
  636THF     C211257   3.746   2.898   3.941  0.4548  0.1134 -0.0555
  636THF     C311258   3.814   2.677   4.002 -0.5706 -0.1587 -0.5192
  636THF     H411259   3.738   2.959   3.851  1.1669 -0.3799 -0.4601
  636THF     H511260   3.771   2.973   4.015  2.1726  0.2223 -0.7023
  636THF     H611261   3.807   2.607   3.919  1.0579 -1.0333  0.0397
  636THF     H711262   3.900   2.640   4.057  0.5865  0.6501 -1.7252
  636THF     C811263   3.674   2.695   4.076 -0.3434  0.3941 -0.0906
  636THF     C911264   3.627   2.800   3.975  0.3107 -0.0735 -0.7296
  636THF    H1011265   3.678   2.752   4.169  0.8436  1.4559 -0.7513
  636THF    H1111266   3.599   2.617   4.088  0.2123  0.2849  3.6454
  636THF    H1211267   3.590   2.753   3.884  1.6100 -0.0082 -1.3198
  636THF    H1311268   3.541   2.858   4.010 -0.9584  0.2317 -4.0145
  637THF     O111269   1.381   3.196   4.817 -0.2364  0.3612  0.3373
  637THF     C211270   1.275   3.278   4.847 -0.4018  0.2006 -0.4184
  637THF     C311271   1.490   3.260   4.741  0.7896  0.0751 -0.2500
  637THF     H411272   1.301   3.318   4.945 -0.9671 -0.5355  0.0374
  637THF     H511273   1.182   3.221   4.851 -1.2608  1.5879  0.1110
  637THF     H611274   1.571   3.290   4.808  1.5419  1.6286 -1.7559
  637THF     H711275   1.520   3.213   4.648 -0.0691 -1.2628  0.1178
  637THF     C811276   1.424   3.394   4.696 -0.2853  1.1754 -0.7244
  637THF     C911277   1.280   3.381   4.736 -0.4178 -0.5795 -0.5056
  637THF    H1011278   1.435   3.407   4.588  1.1556  1.2011 -0.5940
  637THF    H1111279   1.472   3.479   4.745  0.0498  0.9632 -0.6798
  637THF    H1211280   1.233   3.472   4.774 -1.8911 -1.4928 -0.0462
  637THF    H1311281   1.210   3.355   4.657  0.2100 -0.0215 -1.2545
  638THF     O111282   4.302   2.118   3.233  0.1033  0.4383  0.3107
  638THF     C211283   4.325   2.241   3.297 -0.0319 -0.3434 -0.5217
  638THF     C311284   4.422   2.043   3.236 -0.2183  0.6668 -0.4293
  638THF     H411285   4.242   2.302   3.334 -0.0470  0.2391 -1.4842
  638THF     H511286   4.377   2.310   3.231 -0.6019 -0.3577 -0.9953
  638THF     H611287   4.396   1.941   3.207  1.8784  0.7877 -3.1181
  638THF     H711288   4.498   2.080   3.168 -3.1735  0.0309 -4.4702
  638THF     C811289   4.451   2.044   3.382 -0.8665  0.3966 -0.3431
  638THF     C911290   4.423   2.198   3.407  0.5282 -0.5418 -0.4158
  638THF    H1011291   4.553   2.013   3.408 -1.1246  1.1504  1.7896
  638THF    H1111292   4.382   1.975   3.431  1.3092 -1.6835  0.0307
  638THF    H1211293   4.376   2.221   3.503 -1.6456 -0.1120 -1.5043
  638THF    H1311294   4.511   2.260   3.392 -0.5644  0.9074 -1.1711
  639THF     O111295   2.145   5.485   5.233  0.2061 -0.0556 -0.3880
  639THF     C211296   2.084   5.426   5.349 -0.2045  0.1328  0.3064
  639THF     C311297   2.241   5.395   5.194  0.4749 -0.5373  0.0630
  639THF     H411298   1.996   5.364   5.336  0.3717 -1.1127  1.9811
  639THF     H511299   2.050   5.514   5.403  1.2778  2.4666 -2.3236
  639THF     H611300   2.191   5.307   5.153  2.6386 -2.3776  1.1713
  639THF     H711301   2.311   5.448   5.129  0.0777  0.3457  0.3521
  639THF     C811302   2.307   5.348   5.330  0.7815 -0.5840  0.0485
  639THF     C911303   2.194   5.356   5.432 -0.4174 -0.1773 -0.1776
  639THF    H1011304   2.387   5.418   5.353  0.8976  0.5332 -3.1956
  639THF    H1111305   2.357   5.252   5.333 -2.0460 -2.2010 -1.0020
  639THF    H1211306   2.148   5.260   5.452 -0.0772 -0.3336 -0.1506
  639THF    H1311307   2.216   5.413   5.522 -0.8221 -2.4313  1.4055
  640THF     O111308   2.929   1.827   3.207  0.8989 -0.0153  0.6453
  640THF     C211309   2.874   1.706   3.153  0.3447 -0.2798 -0.3314
  640THF     C311310   3.037   1.859   3.121 -0.2579 -0.1408  0.0297
  640THF     H411311   2.772   1.698   3.190  0.9898 -2.0676  1.2486
  640THF     H511312   2.934   1.619   3.181  2.1635  1.2693  0.8838
  640THF     H611313   3.054   1.966   3.123  0.4343 -0.2516  0.5683
  640THF     H711314   3.132   1.832   3.168 -0.0015  0.2015 -0.2849
  640THF     C811315   3.012   1.799   2.984 -0.8011 -0.0374 -0.1204
  640THF     C911316   2.885   1.719   3.005 -0.6899  0.9463 -0.7343
  640THF    H1011317   3.102   1.740   2.968  0.6273  2.0470 -0.0551
  640THF    H1111318   2.996   1.878   2.911  0.6560 -0.1674 -0.6003
  640THF    H1211319   2.802   1.785   2.979 -0.8179  2.3455  2.6900
  640THF    H1311320   2.895   1.625   2.952 -0.4082  0.0317  0.8944
  641THF     O111321   5.440   5.476   1.213 -0.6988 -0.1247  0.0900
  641THF     C211322   5.484   5.423   1.087 -0.9810  0.0590 -0.2940
  641THF     C311323   5.544   5.548   1.271  0.3724  0.4135 -0.3146
  641THF     H411324   5.399   5.399   1.023  0.0533 -1.2202 -1.2384
  641THF     H511325   5.528   5.325   1.101 -0.2063  0.7381  2.7605
  641THF     H611326   5.517   5.610   1.357  0.7861  0.1969 -0.0215
  641THF     H711327   5.611   5.466   1.299  0.4709  0.0091 -1.6849
  641THF     C811328   5.620   5.616   1.165 -0.2395  0.3358  0.0502
  641THF     C911329   5.589   5.531   1.043 -0.4884 -0.0304 -0.1678
  641THF    H1011330   5.727   5.618   1.185 -0.6366  1.0118  2.2796
  641THF    H1111331   5.576   5.715   1.155 -0.6457  0.3241  1.5739
  641THF    H1211332   5.559   5.593   0.959 -0.1828  0.1680 -0.1347
  641THF    H1311333   5.676   5.473   1.013 -0.1085  0.0581  0.7152
  642THF     O111334   3.941   2.061   1.135 -0.2844 -0.3768  0.1557
  642THF     C211335   3.931   2.033   1.276 -0.3246 -0.5645  0.4804
  642THF     C311336   3.965   1.940   1.066 -0.3202 -0.0146  0.3434
  642THF     H411337   3.851   2.099   1.308  0.7374  0.3833  1.2875
  642THF     H511338   4.021   2.067   1.327 -0.0502 -0.1893 -0.2399
  642THF     H611339   3.920   1.932   0.966  3.3229  0.7262 -1.5258
  642THF     H711340   4.072   1.919   1.069 -0.6222 -1.8127  0.1737
  642THF     C811341   3.895   1.829   1.148 -0.4376  0.3093 -0.5613
  642THF     C911342   3.899   1.889   1.290  0.2203 -0.1108 -0.0319
  642THF    H1011343   3.934   1.730   1.126 -2.6692 -0.0424 -3.7236
  642THF    H1111344   3.797   1.812   1.102  1.7576 -4.3489 -4.4598
  642THF    H1211345   3.803   1.875   1.340 -0.1241  0.9505 -0.3719
  642THF    H1311346   3.973   1.838   1.353 -2.3611  0.2306  3.5987
  643THF     O111347   1.998   4.913   1.521 -0.0685  0.7834 -0.0398
  643THF     C211348   1.860   4.954   1.515  0.5171 -0.2038 -0.0798
  643THF     C311349   2.056   4.979   1.401  0.1114  0.1703 -0.2847
  643THF     H411350   1.859   5.055   1.556 -0.9087 -0.0306 -0.4947
  643THF     H511351   1.793   4.897   1.580  0.6762 -0.4975 -0.1714
  643THF     H611352   2.062   5.086   1.419 -2.9942  0.0272  2.4462
  643THF     H711353   2.150   4.934   1.368 -0.4973 -2.7560  1.5676
  643THF     C811354   1.951   4.942   1.296  0.1309  0.2724 -0.2536
  643THF     C911355   1.812   4.948   1.370  0.1422 -0.6486 -1.0806
  643THF    H1011356   1.974   4.847   1.249  0.2508  1.5772 -3.0612
  643THF    H1111357   1.945   5.017   1.217  2.0982 -0.4498 -1.1434
  643THF    H1211358   1.746   5.033   1.351 -0.0663  0.3642  3.1516
  643THF    H1311359   1.759   4.856   1.345 -0.4087 -0.5342 -0.3746
  644THF     O111360   2.482   0.494   4.010  0.0287 -0.2795 -0.7761
  644THF     C211361   2.451   0.600   4.100 -0.0811 -0.5374  0.1692
  644THF     C311362   2.588   0.538   3.920  0.2451  0.1211  0.5880
  644THF     H411363   2.413   0.565   4.197  2.2755 -0.7831  1.0552
  644THF     H511364   2.380   0.670   4.056  0.5319  0.9023  1.3790
  644THF     H611365   2.674   0.471   3.924 -0.2475 -0.4513  3.1784
  644THF     H711366   2.558   0.556   3.816  0.0835  1.9187  0.9132
  644THF     C811367   2.647   0.667   3.981  0.6407 -0.1034 -0.8045
  644THF     C911368   2.586   0.672   4.121  0.0126  0.3508 -0.1321
  644THF    H1011369   2.625   0.755   3.921 -0.2417  1.6421  1.8665
  644THF    H1111370   2.753   0.658   4.001  0.1131 -0.2314  2.5111
  644THF    H1211371   2.647   0.604   4.181 -0.9661  0.1568  0.6746
  644THF    H1311372   2.588   0.768   4.172 -2.5343 -0.7995  2.4531
  645THF     O111373   1.668   4.693   0.430 -0.2829  0.0538 -0.3953
  645THF     C211374   1.648   4.708   0.293 -0.1438 -0.1275 -0.0135
  645THF     C311375   1.796   4.636   0.454  0.2048  0.1817 -0.4081
  645THF     H411376   1.705   4.788   0.246 -0.6321  0.2569  0.0296
  645THF     H511377   1.545   4.725   0.262 -0.3412  0.4865  0.9257
  645THF     H611378   1.866   4.718   0.466  1.3655 -0.8894  0.4361
  645THF     H711379   1.805   4.586   0.551  1.4249  0.4918 -0.3498
  645THF     C811380   1.829   4.557   0.327 -0.3916  0.3532 -0.7094
  645THF     C911381   1.705   4.579   0.240  0.6176  0.3514  0.0283
  645THF    H1011382   1.852   4.454   0.353  2.2465  1.3611  1.4722
  645THF    H1111383   1.904   4.607   0.266 -0.3150 -0.5897 -1.4001
  645THF    H1211384   1.713   4.582   0.131  1.1084 -1.2584 -0.0073
  645THF    H1311385   1.626   4.510   0.272  0.5736  0.8119  0.9440
  646THF     O111386   4.038   4.865   0.555 -0.4365 -0.1381 -0.1235
  646THF     C211387   4.021   5.007   0.581 -0.3844  0.9057  0.0324
  646THF     C311388   3.980   4.796   0.664  0.5239 -0.6860  0.4812
  646THF     H411389   4.018   5.060   0.485  1.0904  0.6683 -0.1624
  646THF     H511390   4.107   5.050   0.632 -1.1169  3.2941 -0.6051
  646THF     H611391   3.956   4.692   0.645 -0.7314 -0.3517  0.0971
  646THF     H711392   4.054   4.810   0.743  1.9434 -1.8111 -0.6038
  646THF     C811393   3.848   4.870   0.698 -0.4108  0.5306  0.5106
  646THF     C911394   3.906   5.012   0.684 -0.6751 -0.2361  0.7185
  646THF    H1011395   3.834   4.855   0.805 -0.2757  2.1087  0.7659
  646THF    H1111396   3.765   4.841   0.633 -1.8927  0.8406  2.1646
  646THF    H1211397   3.824   5.081   0.663 -1.3055 -0.9955  0.5936
  646THF    H1311398   3.945   5.037   0.782 -1.6643 -1.9549  1.5953
  647THF     O111399   3.838   0.463   4.733  0.2281  0.3562 -0.1261
  647THF     C211400   3.845   0.351   4.822 -0.5852  0.0503  0.5354
  647THF     C311401   3.917   0.574   4.782  0.7937  0.4666  0.7758
  647THF     H411402   3.922   0.281   4.788 -0.9451 -0.1658  0.1461
  647THF     H511403   3.753   0.297   4.841  0.0576 -1.5816 -0.7367
  647THF     H611404   4.010   0.587   4.726  0.9829  0.7007  1.1308
  647THF     H711405   3.856   0.664   4.770  0.2093 -0.2053 -1.9996
  647THF     C811406   3.933   0.552   4.933 -0.0069  0.2304 -0.4729
  647THF     C911407   3.880   0.410   4.958  0.2566  0.4509 -0.1783
  647THF    H1011408   3.881   0.629   4.991 -0.0504  0.5257 -0.9019
  647THF    H1111409   4.039   0.561   4.956 -0.4281  2.1057  1.0965
  647THF    H1211410   3.955   0.357   5.018  0.0154 -0.0629 -0.3253
  647THF    H1311411   3.789   0.417   5.018 -0.6241  1.7988 -1.6086
  648THF     O111412   1.314   4.568   4.808  0.3925  0.0640  0.0556
  648THF     C211413   1.264   4.624   4.688 -0.2509  0.2892  0.0068
  648THF     C311414   1.317   4.427   4.784  0.8610  0.2707 -0.4258
  648THF     H411415   1.347   4.620   4.616 -0.1730  0.1938  0.1008
  648THF     H511416   1.254   4.730   4.711 -0.8947  0.5069 -1.1824
  648THF     H611417   1.410   4.403   4.732 -0.2203 -0.9124 -1.8865
  648THF     H711418   1.304   4.369   4.875  0.3430  0.7683 -0.1761
  648THF     C811419   1.187   4.401   4.695 -0.5152  0.0130  0.1506
  648THF     C911420   1.145   4.536   4.645  0.2131  0.3199  0.4973
  648THF    H1011421   1.116   4.352   4.761  0.2227 -2.1906 -0.5933
  648THF    H1111422   1.208   4.328   4.616 -0.3085 -0.5761  0.7374
  648THF    H1211423   1.113   4.546   4.542 -1.4510 -0.0571  0.9447
  648THF    H1311424   1.054   4.566   4.698  0.0030  2.1856 -0.8336
  649THF     O111425   1.509   0.343   1.101 -0.4597 -0.3117  0.4795
  649THF     C211426   1.505   0.435   1.203  0.9890 -0.0036 -0.6227
  649THF     C311427   1.372   0.301   1.089 -0.2178  0.6237 -0.5259
  649THF     H411428   1.588   0.505   1.190  1.2494 -0.4628 -1.4792
  649THF     H511429   1.510   0.379   1.297 -1.4820  1.0010  0.1965
  649THF     H611430   1.359   0.247   0.995 -0.2125 -2.8141  1.2541
  649THF     H711431   1.352   0.232   1.171 -1.0850  0.5446 -0.7966
  649THF     C811432   1.283   0.416   1.101  0.8621  0.4999 -0.0162
  649THF     C911433   1.370   0.507   1.192 -0.1686  0.2702  0.0276
  649THF    H1011434   1.189   0.379   1.143  0.6705  1.0575  0.0536
  649THF    H1111435   1.270   0.455   1.000 -3.7876 -3.4568 -1.2918
  649THF    H1211436   1.376   0.611   1.159  2.0115 -0.2151 -1.3525
  649THF    H1311437   1.318   0.512   1.287 -0.4854  1.3039 -0.1795
  650THF     O111438   3.775   2.174   2.480 -0.0308 -0.0722  0.8742
  650THF     C211439   3.657   2.137   2.412  0.6249  0.4545 -0.1014
  650THF     C311440   3.799   2.092   2.592  0.1147  0.8922  0.1103
  650THF     H411441   3.688   2.118   2.309  1.8326 -2.5091  0.7054
  650THF     H511442   3.585   2.218   2.410 -2.6550 -2.2509 -0.0243
  650THF     H611443   3.902   2.088   2.626 -0.7060 -0.6975  2.7352
  650THF     H711444   3.743   2.128   2.679 -1.7155  0.8421 -0.9927
  650THF     C811445   3.731   1.958   2.546 -0.7930  0.1708 -0.6970
  650THF     C911446   3.607   2.006   2.475  0.3459 -0.6028 -0.2583
  650THF    H1011447   3.713   1.903   2.639  2.3620  2.2372  1.3585
  650THF    H1111448   3.787   1.896   2.476 -1.6319  0.9706 -2.1215
  650THF    H1211449   3.578   1.931   2.401 -0.3136  0.3581 -0.9835
  650THF    H1311450   3.518   2.019   2.537  1.7593 -0.9247  1.9673
  651THF     O111451   5.119   0.143   1.693  0.7450 -0.5933  0.0189
  651THF     C211452   5.127   0.014   1.630  0.0051  0.3028 -0.4223
  651THF     C311453   5.248   0.203   1.688  0.3551 -0.4024  0.1332
  651THF     H411454   5.080   0.034   1.533 -3.0565 -1.6148  0.5068
  651THF     H511455   5.065  -0.061   1.679 -0.5615  0.3452 -1.0639
  651THF     H611456   5.255   0.245   1.588 -0.6988  0.4431  0.3911
  651THF     H711457   5.264   0.287   1.757 -0.8808  0.4393 -0.5696
  651THF     C811458   5.343   0.088   1.699 -0.1208 -0.5343  0.3590
  651THF     C911459   5.271  -0.024   1.623 -0.1690 -0.2466  0.0121
  651THF    H1011460   5.360   0.074   1.806  0.6002  0.6368  0.4158
  651THF    H1111461   5.440   0.100   1.652  0.2973  0.5433  1.4414
  651THF    H1211462   5.303  -0.027   1.519  1.2799  0.1882  0.4203
  651THF    H1311463   5.288  -0.125   1.661 -0.2292  0.5755  2.4098
  652THF     O111464   3.660   0.902   3.751  0.1039  0.1039 -0.0957
  652THF     C211465   3.733   1.021   3.716 -0.4414  0.7241  0.8256
  652THF     C311466   3.713   0.796   3.682 -0.6514 -0.6970 -0.1863
  652THF     H411467   3.794   1.058   3.798  1.8552 -0.4716 -0.2578
  652THF     H511468   3.648   1.089   3.705 -2.1956 -1.3367  1.0964
  652THF     H611469   3.804   0.762   3.730 -0.5051 -1.4751 -0.9878
  652THF     H711470   3.641   0.714   3.685 -0.7305 -0.6081  0.6363
  652THF     C811471   3.765   0.847   3.549  0.3023 -0.6035  0.2712
  652THF     C911472   3.812   0.986   3.588 -0.0877 -0.0211 -1.0282
  652THF    H1011473   3.690   0.862   3.471  2.2488  0.8474 -1.4521
  652THF    H1111474   3.845   0.787   3.507 -1.4207 -0.6073 -3.4557
  652THF    H1211475   3.917   0.987   3.614 -0.4440 -0.0441  0.4673
  652THF    H1311476   3.793   1.053   3.503  0.1550 -0.7900 -1.6986
  653THF     O111477   2.966   1.258   2.948  0.2162  0.6038  0.0264
  653THF     C211478   3.033   1.262   2.821 -0.0411  0.0320 -0.2961
  653THF     C311479   2.826   1.299   2.928 -1.1335  0.0136 -0.0375
  653THF     H411480   3.105   1.182   2.809  0.0859  0.4590 -3.0015
  653THF     H511481   3.101   1.347   2.829  1.5619 -1.1683 -0.5879
  653THF     H611482   2.758   1.215   2.941  0.1010 -1.0347 -0.2564
  653THF     H711483   2.808   1.371   3.008  1.4492  0.5885  0.1239
  653THF     C811484   2.803   1.340   2.779 -0.1838  0.2297 -0.4834
  653THF     C911485   2.923   1.267   2.721 -0.1165 -0.5682  0.3542
  653THF    H1011486   2.807   1.447   2.759 -1.2528  0.0283 -2.0057
  653THF    H1111487   2.703   1.314   2.744 -0.9920  1.8777  0.5076
  653THF    H1211488   2.899   1.166   2.686  1.4773 -0.5854 -0.8066
  653THF    H1311489   2.964   1.309   2.629 -0.3897 -0.9871  0.0322
  654THF     O111490   4.656   0.905   4.990 -0.1291  0.0054  0.0550
  654THF     C211491   4.600   0.799   4.916 -0.4338  0.2247  0.0477
  654THF     C311492   4.601   0.906   5.119 -0.4036 -1.4403 -0.2816
  654THF     H411493   4.669   0.716   4.928 -1.4070 -0.2194  4.3939
  654THF     H511494   4.592   0.824   4.811 -0.3585 -0.9419 -0.2483
  654THF     H611495   4.679   0.884   5.192 -0.3937 -0.6688 -0.0540
  654THF     H711496   4.554   1.001   5.143 -0.2273 -1.0156 -1.5772
  654THF     C811497   4.498   0.794   5.120 -0.0468 -0.3517 -0.1784
  654THF     C911498   4.469   0.760   4.974 -0.1715 -0.3158  0.0896
  654THF    H1011499   4.413   0.831   5.178 -0.1123 -0.0696 -0.4512
  654THF    H1111500   4.541   0.712   5.178  1.5214  2.2683  2.6328
  654THF    H1211501   4.429   0.661   4.950 -1.6495  0.2416  0.1143
  654THF    H1311502   4.390   0.822   4.932 -0.0892 -1.4563 -1.8584
  655THF     O111503   0.110   1.154   3.040 -0.3165 -0.3177 -0.0837
  655THF     C211504   0.018   1.061   3.094  0.1265  0.0781  0.5318
  655THF     C311505   0.184   1.205   3.146  0.3013 -0.0157 -0.3150
  655THF     H411506  -0.037   0.997   3.025 -2.0970 -0.1010  2.3308
  655THF     H511507  -0.058   1.113   3.153  1.3679  1.6146  0.8637
  655THF     H611508   0.285   1.227   3.114  0.2280  0.2160 -0.3934
  655THF     H711509   0.146   1.301   3.180  2.3035  1.0907 -1.0948
  655THF     C811510   0.171   1.103   3.265 -0.3387 -0.1197  0.2124
  655THF     C911511   0.107   0.988   3.194 -0.5484 -0.1343 -0.1541
  655THF    H1011512   0.102   1.136   3.342 -0.1824 -1.9483  1.1835
  655THF    H1111513   0.260   1.079   3.322 -0.5347 -0.2679  0.4590
  655THF    H1211514   0.178   0.932   3.132 -0.6192  0.6672 -0.9734
  655THF    H1311515   0.049   0.914   3.250  0.1701 -0.0989  0.6533
  656THF     O111516   3.904   4.537   3.631  0.6576  0.2181 -0.1996
  656THF     C211517   3.900   4.614   3.752 -0.4502 -0.4314 -0.6201
  656THF     C311518   3.904   4.402   3.673  0.5158 -0.0595  0.1514
  656THF     H411519   3.800   4.601   3.793  0.1545 -0.9027  0.7765
  656THF     H511520   3.916   4.721   3.735 -2.2462  0.5038  2.6954
  656THF     H611521   3.805   4.356   3.681  0.5245 -0.7073 -2.5577
  656THF     H711522   3.966   4.353   3.597  0.8653  0.7470 -0.0879
  656THF     C811523   3.967   4.395   3.810  0.4075 -0.0974 -0.7653
  656THF     C911524   3.998   4.540   3.845 -0.0166 -0.2518  0.0870
  656THF    H1011525   4.060   4.338   3.804  0.2931 -0.3720 -0.0170
  656THF    H1111526   3.889   4.365   3.880  0.3571  1.7935  0.0635
  656THF    H1211527   3.980   4.556   3.952 -0.1187 -2.8929  0.5506
  656THF    H1311528   4.097   4.584   3.832 -0.4142  0.5061 -0.3643
  657THF     O111529   4.317   1.257   2.342 -0.2983 -0.7181  0.3299
  657THF     C211530   4.277   1.254   2.478 -0.4664  0.0749 -0.4028
  657THF     C311531   4.220   1.194   2.263 -0.1248  0.1588 -0.8147
  657THF     H411532   4.220   1.343   2.506  1.2816  1.0835  0.0810
  657THF     H511533   4.370   1.265   2.533 -0.7246 -1.2502  0.3443
  657THF     H611534   4.140   1.266   2.245  1.5180  2.4512  0.4757
  657THF     H711535   4.263   1.169   2.166 -0.4593  1.6142 -1.3744
  657THF     C811536   4.185   1.069   2.350 -0.2531  0.1416  0.3697
  657THF     C911537   4.197   1.123   2.494 -0.3060  0.0592 -0.0398
  657THF    H1011538   4.265   0.998   2.331  0.7190  1.5899 -1.3318
  657THF    H1111539   4.089   1.023   2.326  0.3108 -1.5484  1.1664
  657THF    H1211540   4.098   1.141   2.537 -0.0038 -0.4035  0.8665
  657THF    H1311541   4.241   1.049   2.561  0.2354  0.7075  0.3320
  658THF     O111542   0.150   3.077   2.632  0.3163 -0.3633 -0.0696
  658THF     C211543   0.035   3.099   2.711  0.2705  0.1367  0.2456
  658THF     C311544   0.192   2.941   2.655 -0.2887  0.6921 -0.1449
  658THF     H411545  -0.029   3.181   2.678 -0.2421 -0.4186 -0.1462
  658THF     H511546   0.072   3.139   2.805 -1.0860  0.5230  0.6371
  658THF     H611547   0.265   2.908   2.581 -1.2508  1.6872 -1.5856
  658THF     H711548   0.240   2.932   2.753  0.4675 -0.0236 -0.5679
  658THF     C811549   0.062   2.860   2.655 -0.7501  0.6888 -0.2320
  658THF     C911550  -0.035   2.966   2.718 -0.0965 -0.2885  0.1583
  658THF    H1011551   0.077   2.790   2.737  2.5341  2.2417  0.6486
  658THF    H1111552   0.035   2.808   2.563 -0.1569 -0.1053  0.0346
  658THF    H1211553  -0.119   2.977   2.649  1.3327  0.2635 -1.5875
  658THF    H1311554  -0.080   2.927   2.809 -1.8056 -1.6409 -1.1919
  659THF     O111555   5.433   3.326   0.740  0.1807 -0.2708 -0.1483
  659THF     C211556   5.518   3.437   0.754  0.1420 -0.6331  0.1339
  659THF     C311557   5.297   3.370   0.743  0.1542  0.3911  0.0027
  659THF     H411558   5.615   3.403   0.718  0.1683  0.7040 -1.1294
  659THF     H511559   5.525   3.478   0.855 -0.0028  0.9880 -0.4847
  659THF     H611560   5.239   3.296   0.688  0.7886  0.2281 -0.4542
  659THF     H711561   5.248   3.370   0.841 -0.4589 -1.8130 -0.2424
  659THF     C811562   5.310   3.509   0.677  0.1686  0.4694  0.6707
  659THF     C911563   5.456   3.533   0.658 -0.4872 -0.2201  0.5980
  659THF    H1011564   5.269   3.589   0.738 -0.1219  0.4773  0.4637
  659THF    H1111565   5.269   3.507   0.576 -1.4296  1.7243  1.2561
  659THF    H1211566   5.495   3.524   0.556  1.0673 -0.3369  1.1843
  659THF    H1311567   5.482   3.633   0.692  0.0830 -0.4520  0.8503
  660THF     O111568   4.505   5.067   2.531 -0.2135  0.2276 -0.1772
  660THF     C211569   4.402   5.114   2.449  0.2782  0.2841 -0.5225
  660THF     C311570   4.578   4.965   2.466 -0.5673 -0.4871  0.4124
  660THF     H411571   4.427   5.193   2.379  3.0624  1.6130  1.7831
  660THF     H511572   4.320   5.154   2.509  1.1858  1.9317 -0.3187
  660THF     H611573   4.633   5.005   2.381 -0.1014  0.8996  1.3218
  660THF     H711574   4.647   4.913   2.532  0.7753  0.8358  0.1066
  660THF     C811575   4.464   4.881   2.425 -0.2581 -0.6216 -0.2251
  660THF     C911576   4.366   4.988   2.375 -0.1477  0.3708 -0.1761
  660THF    H1011577   4.431   4.818   2.508 -0.1248 -1.9612 -1.1454
  660THF    H1111578   4.511   4.810   2.356  0.1624 -1.1546  0.5931
  660THF    H1211579   4.382   5.007   2.269  0.1107 -1.9208 -0.5921
  660THF    H1311580   4.262   4.955   2.381  0.2006 -0.7838 -0.2931
  661THF     O111581   0.068   1.315   0.289  0.0012  0.0923  0.1511
  661THF     C211582   0.180   1.388   0.330 -0.3775  0.2985  0.0702
  661THF     C311583   0.111   1.244   0.173 -0.3666 -0.3685  0.4219
  661THF     H411584   0.245   1.316   0.381  1.4125 -0.2398 -2.7205
  661THF     H511585   0.156   1.467   0.401 -1.2837 -0.1481  0.2704
  661THF     H611586   0.176   1.163   0.207 -0.3363 -0.4195  0.2388
  661THF     H711587   0.022   1.196   0.131 -2.1569  1.0501  2.3896
  661THF     C811588   0.178   1.346   0.087  0.7084  0.1013 -0.0979
  661THF     C911589   0.237   1.437   0.191  0.5128 -0.2924  0.2954
  661THF    H1011590   0.118   1.410   0.023 -0.8365 -1.3062 -0.1330
  661THF    H1111591   0.253   1.290   0.031 -0.2900 -3.0986  1.4991
  661THF    H1211592   0.344   1.457   0.190  0.2127  1.4967  0.0748
  661THF    H1311593   0.200   1.538   0.175 -0.7602 -0.4565  2.0153
  662THF     O111594   2.597   0.084   1.050 -0.0345 -0.4039 -0.1872
  662THF     C211595   2.542   0.102   1.176  0.8364 -0.3180  0.3640
  662THF     C311596   2.506   0.129   0.953 -0.2937  0.1810 -0.2724
  662THF     H411597   2.559   0.207   1.204 -1.0273 -0.2099  1.2233
  662THF     H511598   2.583   0.049   1.262 -0.9276 -0.7639  0.9609
  662THF     H611599   2.512   0.238   0.948  0.6419  0.0851 -1.7465
  662THF     H711600   2.535   0.089   0.856 -1.9823  0.0891 -0.7710
  662THF     C811601   2.374   0.078   1.009 -0.3533 -0.1645  0.1107
  662THF     C911602   2.393   0.081   1.154 -0.1658  0.1180  0.3010
  662THF    H1011603   2.357  -0.022   0.970  0.9061 -0.2471 -0.2630
  662THF    H1111604   2.292   0.145   0.983 -0.0176 -0.5943 -2.2744
  662THF    H1211605   2.335   0.162   1.198  0.2373 -0.6651  2.3895
  662THF    H1311606   2.364  -0.014   1.198  3.3114 -0.6848  1.1442
  663THF     O111607   0.816   1.008   5.399 -0.6638 -0.3417  0.4558
  663THF     C211608   0.893   0.901   5.440  0.2546  0.6088 -0.2300
  663THF     C311609   0.686   0.983   5.443 -0.5730  0.4661  0.3692
  663THF     H411610   0.918   0.896   5.546  3.3033  1.5740 -0.7880
  663THF     H511611   0.985   0.904   5.382  0.4937 -1.5828 -0.0687
  663THF     H611612   0.652   1.018   5.541 -1.3061 -0.5775  0.5052
  663THF     H711613   0.617   1.029   5.372 -0.5625 -0.7418 -0.4462
  663THF     C811614   0.672   0.834   5.412  0.5967  0.9834 -0.2742
  663THF     C911615   0.812   0.773   5.400 -0.3347 -0.0333 -0.2422
  663THF    H1011616   0.624   0.817   5.316  0.2291  0.1642  0.0463
  663THF    H1111617   0.605   0.791   5.486 -2.5763  0.4547 -3.1679
  663THF    H1211618   0.827   0.680   5.454  0.3808 -0.9959 -2.0239
  663THF    H1311619   0.839   0.750   5.297  0.2391  0.1106 -0.1277
  664THF     O111620   5.464   4.907   2.125 -0.0587  0.1379  0.5329
  664THF     C211621   5.579   4.839   2.086  0.1803 -0.2306  0.2371
  664THF     C311622   5.396   4.818   2.204 -0.1826 -0.2480  0.0690
  664THF     H411623   5.654   4.864   2.161 -1.2402 -0.8921  1.9672
  664THF     H511624   5.620   4.874   1.992 -0.0226 -2.0209 -0.5692
  664THF     H611625   5.451   4.799   2.296  1.1412  0.1304 -0.6200
  664THF     H711626   5.292   4.842   2.228 -0.2397 -0.9631  0.5573
  664THF     C811627   5.403   4.689   2.123  0.5081 -0.2418 -0.7287
  664THF     C911628   5.539   4.692   2.072  0.1410 -1.0268 -0.8422
  664THF    H1011629   5.333   4.703   2.041 -0.5934 -0.1260  0.2026
  664THF    H1111630   5.379   4.592   2.166 -2.1954  0.7264  0.1332
  664THF    H1211631   5.607   4.626   2.125  2.0919 -0.0708 -2.0371
  664THF    H1311632   5.531   4.668   1.966  1.6221 -2.9020 -0.5766
  665THF     O111633   0.550   4.902   1.970 -0.3300 -0.3693 -0.4481
  665THF     C211634   0.566   5.018   1.890 -0.2429 -0.9025  0.3355
  665THF     C311635   0.676   4.870   2.028  0.0828  0.0620 -1.2700
  665THF     H411636   0.550   5.115   1.938  0.0276 -0.3402 -0.6779
  665THF     H511637   0.489   5.018   1.814 -0.5965  2.9295  0.4853
  665THF     H611638   0.715   4.939   2.103 -1.8934 -0.1033 -0.0332
  665THF     H711639   0.667   4.769   2.066 -1.1432  0.5790 -0.1258
  665THF     C811640   0.769   4.880   1.914 -0.2773  0.0981  0.0879
  665THF     C911641   0.708   5.004   1.838  0.2499  0.1003 -0.1876
  665THF    H1011642   0.777   4.788   1.856 -3.7571 -1.4177  1.7461
  665THF    H1111643   0.867   4.912   1.949 -1.2976 -0.2230  3.6212
  665THF    H1211644   0.759   5.098   1.863  2.1420 -0.4104 -1.9547
  665THF    H1311645   0.701   5.004   1.730  1.0156  0.7666 -0.2482
  666THF     O111646   0.828   2.415   0.787  0.5300 -0.3133 -0.4271
  666THF     C211647   0.966   2.376   0.796  0.2896  0.0442  0.0053
  666THF     C311648   0.811   2.549   0.741 -0.4050 -0.1604 -0.0536
  666THF     H411649   0.997   2.324   0.705  0.9269 -0.2547  0.3889
  666THF     H511650   0.992   2.314   0.882  0.4356 -0.9342 -0.7271
  666THF     H611651   0.753   2.558   0.650  3.0705 -2.9644 -2.8532
  666THF     H711652   0.761   2.606   0.820  1.7954  3.6104 -1.1132
  666THF     C811653   0.947   2.597   0.728 -0.4109 -0.0873  0.7723
  666THF     C911654   1.038   2.511   0.810 -0.9318 -0.0986  0.3222
  666THF    H1011655   0.950   2.702   0.756 -3.7971  0.3950 -0.2192
  666THF    H1111656   0.983   2.589   0.625  1.8303 -2.6506  1.6337
  666THF    H1211657   1.140   2.507   0.774 -0.5639 -1.8997  1.4241
  666THF    H1311658   1.050   2.555   0.909  0.8127  2.0655 -0.7699
  667THF     O111659   0.810   4.518   0.147  0.3106  0.5318  0.5509
  667THF     C211660   0.828   4.617   0.244 -0.6365  0.6075 -0.5559
  667THF     C311661   0.931   4.483   0.085 -0.1088  0.0557 -0.4162
  667THF     H411662   0.750   4.619   0.320 -1.3958 -1.0951 -1.2592
  667THF     H511663   0.833   4.720   0.209  0.7917  0.0862 -2.0251
  667THF     H611664   0.938   4.375   0.076  0.6462  0.2126 -2.0063
  667THF     H711665   0.943   4.525  -0.015  1.3996 -0.4208 -0.4686
  667THF     C811666   1.043   4.523   0.186 -0.1794 -0.5736  0.2850
  667THF     C911667   0.963   4.583   0.303 -0.5712 -0.1312 -0.1703
  667THF    H1011668   1.113   4.598   0.149 -2.5209  0.2624 -2.8849
  667THF    H1111669   1.112   4.441   0.209  0.2840 -0.1701  0.3450
  667THF    H1211670   0.957   4.496   0.368  1.2226  0.5955  1.0469
  667THF    H1311671   1.009   4.671   0.347 -0.1940 -0.0143 -0.7874
  668THF     O111672   3.482   1.130   0.809  0.4258 -0.0035 -0.0568
  668THF     C211673   3.358   1.121   0.743 -0.1848 -0.1525  0.1971
  668THF     C311674   3.462   1.173   0.949 -0.0756  0.0373 -0.3874
  668THF     H411675   3.324   1.018   0.747  0.3036 -0.3284 -0.0957
  668THF     H511676   3.375   1.153   0.640  0.2135 -1.4160 -0.1556
  668THF     H611677   3.446   1.092   1.020  2.4509 -2.1675 -2.1696
  668THF     H711678   3.557   1.220   0.971 -1.7766  4.6397 -1.6092
  668THF     C811679   3.350   1.270   0.938 -0.1232  0.2616  0.2415
  668THF     C911680   3.269   1.215   0.825  0.5520  1.3012 -0.5572
  668THF    H1011681   3.390   1.366   0.904 -1.4418 -0.0706 -2.4597
  668THF    H1111682   3.298   1.281   1.033 -0.5409  0.0859  0.0319
  668THF    H1211683   3.190   1.163   0.880  0.6831  2.4032  0.7311
  668THF    H1311684   3.223   1.290   0.761 -0.9291 -0.2068 -1.3584
  669THF     O111685   0.574   0.780   2.428 -0.4168 -0.2843  0.5212
  669THF     C211686   0.660   0.839   2.333 -0.4331 -0.8035 -0.1113
  669THF     C311687   0.649   0.677   2.487 -0.2165 -0.0705  0.5142
  669THF     H411688   0.620   0.940   2.320  1.7439  0.1861  0.4829
  669THF     H511689   0.661   0.778   2.243  3.9857 -1.5362  0.2297
  669THF     H611690   0.595   0.627   2.567  0.3456 -0.6925  0.5130
  669THF     H711691   0.673   0.601   2.413 -1.0989  0.8645 -0.7722
  669THF     C811692   0.776   0.754   2.532 -0.2683 -0.3801  0.3586
  669THF     C911693   0.795   0.844   2.414  0.5390  0.9193 -0.0852
  669THF    H1011694   0.870   0.701   2.548 -0.6640 -1.4260 -0.6048
  669THF    H1111695   0.747   0.806   2.623  1.3371  0.1766  0.5805
  669THF    H1211696   0.812   0.943   2.456  0.9230  0.7143  0.2557
  669THF    H1311697   0.881   0.818   2.352  0.7438  0.7991  0.2463
  670THF     O111698   2.524   2.997   2.535 -0.1156 -0.2959 -0.4384
  670THF     C211699   2.461   3.117   2.482  0.4940  0.2954  0.2164
  670THF     C311700   2.422   2.920   2.604  0.6019 -0.4430  0.2006
  670THF     H411701   2.445   3.097   2.376 -2.5335  2.1735  0.2029
  670THF     H511702   2.514   3.211   2.493  0.8977 -0.0172  1.0196
  670THF     H611703   2.418   2.815   2.574  2.6259 -0.1060 -1.4309
  670THF     H711704   2.446   2.911   2.710  3.3332 -1.2134 -0.4099
  670THF     C811705   2.288   2.992   2.581 -0.1554  0.3950  0.2048
  670THF     C911706   2.324   3.131   2.549  0.1055 -0.0672 -0.0398
  670THF    H1011707   2.223   2.978   2.667  1.6928 -1.9478  1.3357
  670THF    H1111708   2.241   2.942   2.497 -0.6261  0.0416  0.6741
  670THF    H1211709   2.249   3.183   2.490  0.2970  1.2546  0.8557
  670THF    H1311710   2.333   3.185   2.643  0.7863 -0.2138 -0.0143
  671THF     O111711   2.465   3.327   2.207  0.2461 -0.9455 -0.4851
  671THF     C211712   2.509   3.458   2.240 -0.0156 -0.4663 -1.4559
  671THF     C311713   2.326   3.329   2.207 -0.1952 -0.2044 -0.9788
  671THF     H411714   2.538   3.518   2.153 -0.3966  1.5812 -0.2447
  671THF     H511715   2.586   3.464   2.317 -1.8448 -0.1922  0.4661
  671THF     H611716   2.296   3.280   2.114 -1.4241 -0.4854 -0.4634
  671THF     H711717   2.303   3.265   2.293  0.6601  1.7080  0.7598
  671THF     C811718   2.283   3.476   2.221 -0.4850  0.3828  0.0449
  671THF     C911719   2.393   3.530   2.301 -0.6061  0.0534  0.5760
  671THF    H1011720   2.188   3.497   2.270 -2.0620 -1.1014 -2.1620
  671THF    H1111721   2.280   3.517   2.120 -2.0105  0.9912  0.3063
  671THF    H1211722   2.386   3.639   2.302 -0.0328  0.0913  1.6313
  671THF    H1311723   2.374   3.503   2.405 -1.3049  0.1291  0.4742
  672THF     O111724   4.375   2.878   4.801  0.2891 -0.1735  0.2330
  672THF     C211725   4.392   2.941   4.673  0.3978 -0.9701  0.3234
  672THF     C311726   4.279   2.951   4.878  0.4666  0.1581  0.2389
  672THF     H411727   4.350   2.876   4.597 -1.8023 -0.6457  1.2032
  672THF     H511728   4.499   2.951   4.654  0.4341 -1.9565 -0.0313
  672THF     H611729   4.216   2.882   4.934 -0.2744 -0.6755 -1.5077
  672THF     H711730   4.330   3.015   4.949  1.6443 -2.5095  1.9274
  672THF     C811731   4.203   3.038   4.774  0.3376  0.1350 -0.1306
  672THF     C911732   4.312   3.068   4.678 -0.3342 -0.0505 -0.5336
  672THF    H1011733   4.158   3.126   4.820  0.5031  0.1996 -0.0934
  672THF    H1111734   4.127   2.977   4.724  0.3128 -0.8485  1.0654
  672THF    H1211735   4.271   3.091   4.579  1.2510 -0.0418 -1.2221
  672THF    H1311736   4.383   3.144   4.712  0.1938 -0.3056 -1.0478
  673THF     O111737   2.903   3.710   0.788 -0.0422 -0.4742 -0.0693
  673THF     C211738   2.968   3.720   0.919  0.4467  0.3032  0.4783
  673THF     C311739   2.918   3.834   0.720 -0.0809 -0.3909 -0.1956
  673THF     H411740   3.019   3.633   0.960 -0.6325  0.3973  2.0907
  673THF     H511741   2.896   3.759   0.991 -1.1699 -3.3025  1.0153
  673THF     H611742   2.902   3.819   0.613  0.0599  0.4963 -0.3533
  673THF     H711743   2.864   3.920   0.760 -0.6441 -0.7934 -0.0694
  673THF     C811744   3.064   3.858   0.751  0.3646 -0.8725  0.4772
  673THF     C911745   3.084   3.811   0.892  0.0055 -0.1214  0.3123
  673THF    H1011746   3.097   3.959   0.728  0.9621 -1.2992 -0.6185
  673THF    H1111747   3.123   3.786   0.694  2.2740  0.1578  1.0522
  673THF    H1211748   3.174   3.752   0.905 -1.6733 -2.9252 -0.0305
  673THF    H1311749   3.088   3.896   0.961 -0.1598 -0.9355  1.3525
  674THF     O111750   1.497   5.021   1.864 -0.3965  0.4366 -0.8746
  674THF     C211751   1.479   5.098   1.977  0.5849  0.2263 -0.1876
  674THF     C311752   1.612   4.941   1.883  0.1347 -0.5921  0.0846
  674THF     H411753   1.446   5.043   2.065 -1.1145 -0.1455 -1.0277
  674THF     H511754   1.399   5.167   1.950 -0.7295 -0.5971  1.4374
  674THF     H611755   1.594   4.870   1.965  0.7774 -0.5052  0.3036
  674THF     H711756   1.642   4.896   1.788 -0.9566  0.1332 -0.6214
  674THF     C811757   1.707   5.051   1.928 -0.1605 -0.0229 -0.4549
  674THF     C911758   1.622   5.153   1.995 -0.0216 -0.5312 -0.6336
  674THF    H1011759   1.765   5.097   1.848 -0.4053 -0.2161 -0.7429
  674THF    H1111760   1.775   5.012   2.003 -0.6825  0.9640  0.5709
  674THF    H1211761   1.643   5.170   2.100 -1.6887 -0.6424 -0.2506
  674THF    H1311762   1.626   5.254   1.953  0.2944  0.0395  0.7271
  675THF     O111763   3.753   2.158   5.027  0.7415 -0.8077  0.0181
  675THF     C211764   3.689   2.216   5.135  0.2670 -0.4195  0.4753
  675THF     C311765   3.794   2.271   4.949  0.2529  0.3481  0.0157
  675THF     H411766   3.684   2.142   5.215 -2.2097  0.0177  0.8391
  675THF     H511767   3.588   2.256   5.119  0.8721  1.3277  0.7890
  675THF     H611768   3.870   2.250   4.873 -0.9568  0.3181 -1.2160
  675THF     H711769   3.699   2.290   4.898 -1.1989 -3.1097  1.1635
  675THF     C811770   3.822   2.384   5.050  0.2403 -0.2957 -0.2000
  675THF     C911771   3.781   2.334   5.184 -0.2564  1.0928  0.5990
  675THF    H1011772   3.757   2.467   5.024  0.5619  0.5625  1.5658
  675THF    H1111773   3.924   2.423   5.046 -0.5623  1.7901 -2.2641
  675THF    H1211774   3.858   2.305   5.256 -1.9056 -1.7983  1.3595
  675THF    H1311775   3.731   2.414   5.239  1.1606  0.0754  3.5844
  676THF     O111776   2.405   1.663   2.673  0.1370 -0.0613 -0.0284
  676THF     C211777   2.408   1.787   2.742  0.9347 -0.9091  0.0507
  676THF     C311778   2.485   1.566   2.745 -0.0672 -0.4666 -0.0014
  676THF     H411779   2.304   1.821   2.742  1.4207  0.6470  0.1390
  676THF     H511780   2.468   1.857   2.683 -0.4618 -0.4661 -0.9220
  676THF     H611781   2.445   1.465   2.737 -1.8047  0.0711  1.3151
  676THF     H711782   2.587   1.580   2.708 -0.5482  1.3944 -0.7561
  676THF     C811783   2.467   1.609   2.891 -0.2156 -0.0163  0.5760
  676THF     C911784   2.477   1.762   2.877 -0.0322  0.4968 -0.2123
  676THF    H1011785   2.555   1.576   2.945  1.0976  1.1763 -0.7311
  676THF    H1111786   2.382   1.551   2.927 -0.2486  0.1392  0.7506
  676THF    H1211787   2.430   1.821   2.955  0.5275  0.2956  0.2838
  676THF    H1311788   2.584   1.779   2.882  0.1351 -0.5555  0.0502
  677THF     O111789   2.647   0.906   0.071  0.5263  0.2320  0.1406
  677THF     C211790   2.772   0.944   0.124 -0.2130  0.0845  0.3889
  677THF     C311791   2.639   0.765   0.052  0.3723 -0.2783  0.4086
  677THF     H411792   2.756   1.029   0.191  0.6720  0.0248  0.6853
  677THF     H511793   2.834   0.985   0.045 -1.1080 -0.3978 -0.5957
  677THF     H611794   2.536   0.728   0.052 -0.3450  1.5943  0.1166
  677THF     H711795   2.693   0.747  -0.041 -1.4844 -1.5657 -0.4905
  677THF     C811796   2.717   0.714   0.177 -0.1977 -0.4819  0.3179
  677THF     C911797   2.817   0.822   0.197  0.3828  1.2944 -0.8807
  677THF    H1011798   2.772   0.622   0.159 -0.6615 -0.6669 -0.2071
  677THF    H1111799   2.651   0.696   0.262 -1.8031 -1.6028 -1.0766
  677THF    H1211800   2.819   0.835   0.305 -1.1140 -2.4725 -0.2301
  677THF    H1311801   2.916   0.781   0.179 -0.0036 -0.2609  0.2763
  678THF     O111802   2.762   4.494   5.267 -0.0626  0.1688 -0.6273
  678THF     C211803   2.786   4.357   5.289  0.5409 -0.1780  0.4014
  678THF     C311804   2.634   4.514   5.326  0.5863 -0.0322  0.0827
  678THF     H411805   2.865   4.344   5.363  0.6569  2.6460  0.8712
  678THF     H511806   2.832   4.323   5.196 -0.9006  1.7149 -1.0860
  678THF     H611807   2.651   4.514   5.433 -1.3780  0.1811  0.4261
  678THF     H711808   2.580   4.603   5.295  2.0434  1.9214  2.7944
  678THF     C811809   2.556   4.383   5.295 -0.2361 -0.1616  0.9434
  678THF     C911810   2.654   4.279   5.316  0.6675  0.1948  0.0919
  678THF    H1011811   2.511   4.381   5.196  1.3834  1.5826  0.1132
  678THF    H1111812   2.479   4.358   5.368  1.5869 -2.7711  2.1490
  678THF    H1211813   2.646   4.244   5.419 -0.5279 -0.0631 -0.0666
  678THF    H1311814   2.644   4.199   5.242  1.7920  0.9983 -0.9427
  679THF     O111815   3.605   4.491   2.811 -0.6819  0.1691 -0.5520
  679THF     C211816   3.750   4.484   2.818 -0.0027 -0.0061 -0.5346
  679THF     C311817   3.558   4.368   2.861 -0.8009 -0.1207  0.1446
  679THF     H411818   3.794   4.580   2.847 -1.0520  0.6564 -1.0794
  679THF     H511819   3.794   4.456   2.723  0.0470 -0.2085 -0.4528
  679THF     H611820   3.451   4.374   2.883 -1.3748  1.7649 -2.6279
  679THF     H711821   3.569   4.290   2.786 -0.2742  0.1161 -0.0307
  679THF     C811822   3.660   4.334   2.971  0.5786  0.4750  0.1736
  679THF     C911823   3.787   4.394   2.925  0.2979  0.0384  0.2233
  679THF    H1011824   3.662   4.226   2.986 -1.2461  0.0770 -1.9148
  679THF    H1111825   3.641   4.395   3.059 -0.5250  2.1190 -1.1376
  679THF    H1211826   3.833   4.448   3.008 -1.6432  0.3021  1.1657
  679THF    H1311827   3.849   4.315   2.882 -1.0602 -0.4772 -0.8596
  680THF     O111828   2.950   4.520   1.605  0.9005 -0.4665 -0.4788
  680THF     C211829   2.960   4.530   1.742 -0.0757 -0.0499 -0.2126
  680THF     C311830   2.936   4.390   1.570  0.5536  0.5751  0.6611
  680THF     H411831   2.931   4.630   1.775 -0.6752 -0.3313  0.1428
  680THF     H511832   3.062   4.523   1.778 -1.0496 -2.4483  2.4617
  680THF     H611833   2.883   4.391   1.475 -0.6489 -0.0680  1.2958
  680THF     H711834   3.039   4.354   1.558 -0.2884 -1.5085 -1.1900
  680THF     C811835   2.852   4.316   1.676 -0.1887 -0.0205 -0.4509
  680THF     C911836   2.869   4.410   1.793  0.0973 -0.6149 -0.1058
  680THF    H1011837   2.895   4.217   1.694  0.1993 -0.2812 -2.5387
  680THF    H1111838   2.751   4.314   1.636  0.0234 -1.3479 -0.9639
  680THF    H1211839   2.766   4.436   1.818  0.6990  0.7395  1.1542
  680THF    H1311840   2.921   4.373   1.882 -1.6723 -0.1004  1.2067
  681THF     O111841   4.416   2.555   3.468 -0.3738  0.0024 -0.0797
  681THF     C211842   4.453   2.509   3.591 -0.2394 -0.1735 -0.3164
  681THF     C311843   4.288   2.612   3.478 -0.1213 -0.1312 -0.3247
  681THF     H411844   4.561   2.499   3.593 -0.0417  1.4960 -1.0030
  681THF     H511845   4.401   2.416   3.617 -1.8149  1.4292  2.9208
  681THF     H611846   4.272   2.697   3.412 -1.6515 -0.0752  0.0947
  681THF     H711847   4.227   2.525   3.456  0.3615  0.2784 -3.8702
  681THF     C811848   4.258   2.646   3.624 -0.0271  0.2082 -0.3036
  681THF     C911849   4.393   2.620   3.686 -0.1625 -0.2194 -0.2813
  681THF    H1011850   4.188   2.574   3.666  0.4375  0.7700  1.4895
  681THF    H1111851   4.224   2.747   3.645 -1.2298 -0.3383  0.4521
  681THF    H1211852   4.454   2.710   3.692 -0.5124 -0.0481  0.9165
  681THF    H1311853   4.390   2.573   3.784 -0.0790 -3.4873 -1.6972
  682THF     O111854   4.702   4.112   5.489  0.0029  0.2555  0.2244
  682THF     C211855   4.786   4.013   5.434  0.0664  0.5504 -0.4955
  682THF     C311856   4.754   4.160   5.612 -0.0562 -0.0107 -0.1326
  682THF     H411857   4.836   4.063   5.351  0.0392 -1.1142 -1.5650
  682THF     H511858   4.736   3.921   5.404  0.1663  0.4948 -0.4890
  682THF     H611859   4.823   4.241   5.586  1.0096  0.2482  3.0687
  682THF     H711860   4.675   4.194   5.680  1.1325 -1.2514  1.9915
  682THF     C811861   4.842   4.052   5.670  0.3999 -0.7324 -0.2122
  682THF     C911862   4.886   3.985   5.543 -0.0930  0.4900 -0.3030
  682THF    H1011863   4.787   3.982   5.732 -1.4367  0.2795 -0.6024
  682THF    H1111864   4.931   4.085   5.722  1.3290 -0.0362 -2.1307
  682THF    H1211865   4.985   4.016   5.508  0.0450  0.9533  0.4694
  682THF    H1311866   4.895   3.879   5.565  0.5224  0.8577  1.4166
  683THF     O111867   3.442   0.792   5.321  0.2220 -0.3536  0.2504
  683THF     C211868   3.421   0.695   5.219 -0.4147 -0.8945  0.1131
  683THF     C311869   3.430   0.917   5.257  0.3646  0.5133 -0.0092
  683THF     H411870   3.324   0.651   5.240 -0.7322  0.0964  0.8001
  683THF     H511871   3.497   0.618   5.221 -0.3780 -0.9715 -1.8448
  683THF     H611872   3.329   0.958   5.246  0.8022  1.0297 -2.6238
  683THF     H711873   3.481   0.997   5.310 -1.3777  2.1807 -0.7179
  683THF     C811874   3.476   0.891   5.116  0.4407  0.4221 -0.4803
  683THF     C911875   3.409   0.762   5.081 -0.4993  0.4348  0.8442
  683THF    H1011876   3.584   0.875   5.117  0.2297 -1.5387  2.8540
  683THF    H1111877   3.445   0.973   5.051 -1.3807 -0.4464 -0.7637
  683THF    H1211878   3.303   0.770   5.060 -0.8504 -2.5273  1.1150
  683THF    H1311879   3.449   0.702   4.999 -0.0901  1.6038  0.1703
  684THF     O111880   0.104   3.882   0.946  0.0058 -1.1876  0.1607
  684THF     C211881   0.009   3.968   1.018  0.0737  0.0047  0.9344
  684THF     C311882   0.069   3.746   0.966  0.2094  0.1274  0.2847
  684THF     H411883  -0.001   4.065   0.969 -0.2813 -0.0332  0.9261
  684THF     H511884   0.045   3.981   1.120 -0.3654  0.5599  1.0216
  684THF     H611885   0.092   3.714   0.864  3.9251 -2.1293  1.6002
  684THF     H711886   0.142   3.706   1.037  0.4889 -0.4493 -0.3148
  684THF     C811887  -0.078   3.744   1.006  0.1083 -0.1056 -0.0713
  684THF     C911888  -0.116   3.890   1.004 -0.0526 -0.7918  0.8178
  684THF    H1011889  -0.082   3.705   1.108  1.4400  1.0534  0.4512
  684THF    H1111890  -0.135   3.691   0.929  0.6380 -1.7503  0.6227
  684THF    H1211891  -0.160   3.922   0.910  1.3302  1.0878  0.7759
  684THF    H1311892  -0.179   3.906   1.092  0.7729 -0.2165  1.3167
  685THF     O111893   3.063   4.954   4.608  0.1433 -0.2205  0.8188
  685THF     C211894   3.175   4.914   4.679  0.1029 -0.1369  0.2261
  685THF     C311895   3.025   5.090   4.628  0.0648  0.6186  0.5199
  685THF     H411896   3.250   4.873   4.612 -0.1959 -2.0903  1.0146
  685THF     H511897   3.141   4.835   4.746  0.3322 -0.9321 -0.5736
  685THF     H611898   3.062   5.160   4.553 -0.6214 -0.4323 -0.8393
  685THF     H711899   2.916   5.090   4.636  0.0397 -2.6567  1.4875
  685THF     C811900   3.084   5.123   4.764  0.7534 -0.4527 -0.2588
  685THF     C911901   3.214   5.041   4.764 -0.1244  0.4029  0.6275
  685THF    H1011902   3.011   5.082   4.834  0.3148  1.4866  0.4946
  685THF    H1111903   3.104   5.229   4.779  2.5996 -0.8607  0.3628
  685THF    H1211904   3.290   5.094   4.706  0.8177 -0.6820  0.8269
  685THF    H1311905   3.244   5.011   4.864 -0.1728  0.0699  0.5418
  686THF     O111906   5.110   2.156   2.217  0.2943 -1.3024 -0.0220
  686THF     C211907   4.997   2.220   2.274 -0.1452 -0.1213  0.7513
  686THF     C311908   5.111   2.022   2.240  0.0585  0.5171  0.6935
  686THF     H411909   4.938   2.274   2.201 -2.2270  1.3852  3.3653
  686THF     H511910   5.025   2.284   2.358 -2.2713 -0.6196  1.8967
  686THF     H611911   5.161   1.972   2.158 -0.1953  1.1272  0.1570
  686THF     H711912   5.171   2.011   2.331  0.5797 -1.4428  0.1550
  686THF     C811913   4.967   1.985   2.264 -0.0585  0.1686 -0.0054
  686THF     C911914   4.919   2.109   2.336 -1.1405 -1.4078 -0.1320
  686THF    H1011915   4.946   1.901   2.330  0.7120  0.4689  0.6391
  686THF    H1111916   4.920   1.987   2.165 -0.3276 -2.9657 -0.0481
  686THF    H1211917   4.810   2.120   2.332 -1.0607 -0.0685  0.6161
  686THF    H1311918   4.942   2.107   2.443  1.4797 -2.7230 -0.6571
  687THF     O111919   3.862   4.358   1.351 -0.3418 -0.0243 -0.0665
  687THF     C211920   3.721   4.328   1.332 -0.0699 -0.5272  0.7246
  687THF     C311921   3.901   4.321   1.485  0.2874 -0.4260  0.0866
  687THF     H411922   3.704   4.285   1.233  2.2019  0.1720 -0.0469
  687THF     H511923   3.652   4.410   1.349  0.7743  0.8619 -2.0129
  687THF     H611924   4.004   4.294   1.508  0.5991  0.1280 -0.5980
  687THF     H711925   3.901   4.402   1.558  0.4192  1.2669 -1.6932
  687THF     C811926   3.813   4.200   1.520 -0.3779 -0.2381 -0.2653
  687THF     C911927   3.683   4.224   1.438 -0.1858  0.0251 -0.4271
  687THF    H1011928   3.785   4.197   1.626 -1.4176 -1.2277 -0.5516
  687THF    H1111929   3.850   4.102   1.489 -4.6105 -1.4570 -2.1343
  687THF    H1211930   3.643   4.132   1.396 -0.0883 -0.1186 -0.2081
  687THF    H1311931   3.606   4.256   1.508  0.2314  0.1193 -0.0049
  688THF     O111932   0.270   1.065   2.197 -0.1564 -0.3121  0.2066
  688THF     C211933   0.265   0.994   2.315  0.1853  0.5848 -0.0542
  688THF     C311934   0.211   1.192   2.207 -0.2493 -0.9614 -0.1944
  688THF     H411935   0.351   1.027   2.374  0.6262  0.7555 -0.7819
  688THF     H511936   0.260   0.887   2.293  0.0278  0.6125 -0.1559
  688THF     H611937   0.295   1.262   2.213 -0.2370 -1.0497  0.8001
  688THF     H711938   0.148   1.214   2.121 -2.1172 -0.5234  1.2115
  688THF     C811939   0.123   1.186   2.326 -0.4957 -0.2402 -1.0614
  688THF     C911940   0.126   1.040   2.362  0.0884  0.4396 -0.7330
  688THF    H1011941   0.024   1.226   2.302  0.2792  1.4221 -1.6621
  688THF    H1111942   0.172   1.242   2.405  1.2351 -1.2399 -1.3777
  688THF    H1211943   0.113   1.017   2.468  3.4996 -0.4908 -0.3933
  688THF    H1311944   0.046   0.988   2.309  0.8491  0.0919 -1.5713
  689THF     O111945   3.554   1.974   0.069  0.1175  0.6876  0.1451
  689THF     C211946   3.435   1.991  -0.013 -0.0367  0.0797 -0.0562
  689THF     C311947   3.613   1.861   0.020 -1.0283  0.7309 -0.6464
  689THF     H411948   3.384   2.087  -0.002 -0.2955  0.1833 -1.8063
  689THF     H511949   3.371   1.912   0.027 -0.7888  0.7526  0.0954
  689THF     H611950   3.716   1.853   0.055 -0.6836  2.3884 -1.2146
  689THF     H711951   3.560   1.773   0.057 -0.2449  0.8457  0.8390
  689THF     C811952   3.608   1.874  -0.134 -0.3844 -0.2744 -0.0589
  689THF     C911953   3.486   1.956  -0.150  0.0614  0.5101  0.3203
  689THF    H1011954   3.610   1.778  -0.185 -0.7940 -0.9751  1.2030
  689THF    H1111955   3.700   1.917  -0.175 -1.7920  2.6879 -0.3690
  689THF    H1211956   3.504   2.049  -0.203  4.2944 -0.2002  0.2030
  689THF    H1311957   3.412   1.891  -0.199  0.9397 -0.3223  0.0576
  690THF     O111958   4.680   3.599   1.701  0.3564 -0.0106  0.2349
  690THF     C211959   4.670   3.483   1.774 -0.3236 -0.0964  0.1421
  690THF     C311960   4.698   3.569   1.565  0.1993 -0.2605 -0.4701
  690THF     H411961   4.629   3.502   1.873  0.2412 -0.9585  0.5497
  690THF     H511962   4.769   3.439   1.789  0.4130  0.8062 -1.6857
  690THF     H611963   4.677   3.648   1.493 -1.3514 -1.0721 -0.9553
  690THF     H711964   4.797   3.526   1.552  0.3879 -0.4683  1.3401
  690THF     C811965   4.601   3.455   1.540 -0.2899  0.1593 -0.3874
  690THF     C911966   4.587   3.392   1.680 -0.3180  0.0566  0.5961
  690THF    H1011967   4.630   3.379   1.468 -0.4881 -0.8902  0.6110
  690THF    H1111968   4.504   3.491   1.505 -0.3374 -0.4854 -0.9396
  690THF    H1211969   4.484   3.399   1.714 -1.0163  1.0402 -1.5575
  690THF    H1311970   4.618   3.288   1.692  1.5249  0.5260  0.1591
  691THF     O111971   5.424   0.246   5.417 -0.0337 -0.0447 -0.3137
  691THF     C211972   5.483   0.369   5.384 -0.4271  0.1568  0.7669
  691THF     C311973   5.290   0.272   5.466 -0.2976 -0.5265 -0.0878
  691THF     H411974   5.562   0.356   5.310  0.6424  3.8047  1.0747
  691THF     H511975   5.531   0.416   5.470 -0.3380  2.4705 -0.4713
  691THF     H611976   5.231   0.181   5.466 -2.1314  0.6155  0.5779
  691THF     H711977   5.294   0.317   5.565  2.0321  3.3219 -1.7072
  691THF     C811978   5.238   0.388   5.372 -0.0678 -0.3355 -0.8813
  691THF     C911979   5.372   0.457   5.332 -0.0025 -0.0778  0.1184
  691THF    H1011980   5.175   0.450   5.435  2.0490 -0.7220  1.8334
  691THF    H1111981   5.172   0.354   5.292 -0.1336  1.7144 -1.7481
  691THF    H1211982   5.377   0.479   5.225  1.3659  0.7377  0.3336
  691THF    H1311983   5.381   0.547   5.393  1.0715 -0.2448  0.2220
  692THF     O111984   5.034   0.474   0.199 -0.3671  0.7161  0.5930
  692THF     C211985   4.908   0.536   0.218 -0.0198  0.1560 -0.6829
  692THF     C311986   5.000   0.335   0.205  0.3048 -0.0562  0.2971
  692THF     H411987   4.868   0.534   0.117 -0.6754 -0.0986 -0.4268
  692THF     H511988   4.910   0.639   0.253 -1.0072  0.4240 -1.3639
  692THF     H611989   4.956   0.303   0.111  0.8296  0.4411 -0.1207
  692THF     H711990   5.080   0.263   0.222 -0.5548 -1.0400  0.2786
  692THF     C811991   4.876   0.319   0.301  0.0457 -0.2212 -0.6968
  692THF     C911992   4.816   0.461   0.304  0.2081  0.3987  0.4236
  692THF    H1011993   4.911   0.293   0.401 -1.4749 -0.4776 -0.2041
  692THF    H1111994   4.809   0.239   0.268 -1.0436  0.4190 -0.0929
  692THF    H1211995   4.716   0.466   0.262  0.3052  0.4454  0.1939
  692THF    H1311996   4.805   0.502   0.405 -2.7491  2.3206 -0.5615
  693THF     O111997   0.498   3.373   4.258  0.2765 -0.1603  0.1194
  693THF     C211998   0.362   3.371   4.307  0.3766 -0.0981 -0.1590
  693THF     C311999   0.489   3.403   4.119 -0.7075  0.4767  0.2618
  693THF     H412000   0.348   3.376   4.415  1.8289 -1.1351  0.1002
  693THF     H512001   0.323   3.274   4.275 -0.8158  0.3298 -0.0713
  693THF     H612002   0.579   3.441   4.069 -0.2717 -1.2163 -0.3018
  693THF     H712003   0.460   3.315   4.062 -0.7072  1.6005 -1.5412
  693THF     C812004   0.390   3.511   4.121  0.4138 -1.4192  0.6402
  693THF     C912005   0.296   3.498   4.235 -0.1104  0.1373  0.2004
  693THF    H1012006   0.340   3.521   4.025  1.4374  1.9189  0.3122
  693THF    H1112007   0.441   3.607   4.123  0.7224 -1.5734  0.2008
  693THF    H1212008   0.300   3.576   4.312 -1.3402 -2.9836  3.7482
  693THF    H1312009   0.193   3.476   4.208 -0.0399  0.0510  0.0045
  694THF     O112010   4.894   1.424   4.273  0.4431 -0.5378 -0.2652
  694THF     C212011   4.758   1.384   4.244  0.3315 -0.5729  0.3623
  694THF     C312012   4.971   1.312   4.293 -0.2669  0.3097  0.0264
  694THF     H412013   4.742   1.434   4.148  0.6917  1.5415  1.3630
  694THF     H512014   4.682   1.425   4.311 -0.3239 -0.4750 -0.4213
  694THF     H612015   5.066   1.346   4.254 -0.1268 -0.5627 -0.4266
  694THF     H712016   4.980   1.289   4.400  1.3481 -0.3003 -0.2195
  694THF     C812017   4.902   1.199   4.219 -0.6232 -0.6391  0.1274
  694THF     C912018   4.757   1.235   4.230  0.3814  0.1332 -0.2205
  694THF    H1012019   4.940   1.100   4.243 -2.3178 -1.5260 -0.6682
  694THF    H1112020   4.917   1.209   4.111 -2.9395 -2.5221 -0.4598
  694THF    H1212021   4.703   1.208   4.140 -0.5014 -0.3114  0.4326
  694THF    H1312022   4.707   1.187   4.314  1.7481  0.8225  1.0409
  695THF     O112023   5.391   3.667   0.260  0.1509  0.2977  0.3235
  695THF     C212024   5.255   3.676   0.301  0.0383  1.0173 -0.3161
  695THF     C312025   5.423   3.785   0.194 -1.1403 -0.2605 -0.7522
  695THF     H412026   5.227   3.620   0.390 -1.2294 -0.7592 -1.7617
  695THF     H512027   5.194   3.641   0.217 -1.0702 -0.8651  1.2109
  695THF     H612028   5.525   3.817   0.214 -1.5832 -0.3001  1.9502
  695THF     H712029   5.422   3.766   0.086 -0.6894  3.4523 -1.5557
  695THF     C812030   5.323   3.903   0.240  0.2624  0.2506 -0.1409
  695THF     C912031   5.223   3.826   0.325  0.3589  0.3022  0.1382
  695THF    H1012032   5.274   3.953   0.157 -2.4772  1.0639  1.8417
  695THF    H1112033   5.366   3.978   0.307  0.2071 -1.3868  1.8257
  695THF    H1212034   5.252   3.845   0.428  1.2544  0.7286 -0.1725
  695THF    H1312035   5.117   3.845   0.313  0.5900  2.7561  1.3233
  696THF     O112036   2.621   5.227   3.888 -0.0049 -0.8382  0.0820
  696THF     C212037   2.651   5.313   3.782  0.0289  0.4044  0.3436
  696THF     C312038   2.484   5.255   3.929  0.2120 -0.7807 -0.0223
  696THF     H412039   2.739   5.283   3.725 -0.7853  1.4987 -1.6193
  696THF     H512040   2.658   5.413   3.825 -2.3082  0.6107  0.4065
  696THF     H612041   2.423   5.172   3.964  1.1356 -1.3359  0.3042
  696THF     H712042   2.486   5.338   4.000  0.2130 -1.0918  0.3422
  696THF     C812043   2.409   5.306   3.801  0.2880  0.6489  0.1427
  696THF     C912044   2.530   5.307   3.696  0.1500 -0.5246  0.4610
  696THF    H1012045   2.374   5.409   3.802  1.3179  1.0111  0.5391
  696THF    H1112046   2.327   5.242   3.770  0.1842 -0.0511  1.7586
  696THF    H1212047   2.526   5.210   3.646  1.1093 -1.0915  1.4496
  696THF    H1312048   2.508   5.381   3.618  2.4638  0.0075  0.2631
  697THF     O112049   0.509   2.822   1.242 -0.6986  0.2507 -0.0674
  697THF     C212050   0.647   2.813   1.215 -0.3656 -1.3739 -0.2345
  697THF     C312051   0.461   2.951   1.216 -0.0636  0.0189  0.3477
  697THF     H412052   0.695   2.717   1.193 -2.3580 -2.8644  1.5510
  697THF     H512053   0.701   2.852   1.302 -2.4210  2.6774 -0.5668
  697THF     H612054   0.369   2.936   1.159  0.7794 -0.9197 -0.7908
  697THF     H712055   0.437   3.003   1.309  1.0490  3.0616 -0.9315
  697THF     C812056   0.567   3.024   1.133 -0.6869 -0.2700 -0.0411
  697THF     C912057   0.653   2.902   1.093 -0.2459 -0.6018 -0.0994
  697THF    H1012058   0.630   3.084   1.198 -2.0586  0.2063  0.9057
  697THF    H1112059   0.524   3.078   1.049  0.0094 -1.2841 -1.0861
  697THF    H1212060   0.619   2.853   1.002  1.9419 -0.9222 -0.8069
  697THF    H1312061   0.753   2.940   1.070  0.3872 -0.2532  2.7725
  698THF     O112062   2.159   5.296   3.470 -0.7306 -0.2985  0.4604
  698THF     C212063   2.145   5.174   3.407  0.1157  0.4174  0.2014
  698THF     C312064   2.042   5.320   3.549 -0.2870  0.4817  0.4126
  698THF     H412065   2.241   5.122   3.418  0.2420  0.5990 -0.0254
  698THF     H512066   2.138   5.187   3.299 -0.6063 -0.5942  0.1143
  698THF     H612067   2.067   5.305   3.654  1.2439  0.2374  0.0441
  698THF     H712068   2.011   5.423   3.535 -1.5805 -0.1317 -1.6647
  698THF     C812069   1.938   5.215   3.504 -0.9850  0.1846  0.4665
  698THF     C912070   2.028   5.101   3.458  0.0867  0.8819  0.3628
  698THF    H1012071   1.862   5.248   3.434 -0.4764  1.4574  0.4932
  698THF    H1112072   1.880   5.191   3.593  0.8049  0.5587  1.7950
  698THF    H1212073   2.050   5.037   3.543  1.4652 -0.3435 -0.8611
  698THF    H1312074   1.982   5.040   3.380 -1.8256  2.2028  0.3933
  699THF     O112075   1.401   5.408   0.047  0.1994 -0.0884  0.6290
  699THF     C212076   1.517   5.454   0.118 -0.3575  0.3739  0.4090
  699THF     C312077   1.353   5.300   0.114  1.1366  0.0830 -0.0025
  699THF     H412078   1.564   5.545   0.080  1.4240 -0.2377  1.0490
  699THF     H512079   1.595   5.383   0.093  0.7860  1.1501  1.6350
  699THF     H612080   1.253   5.283   0.075  0.4732 -0.2456  1.7720
  699THF     H712081   1.403   5.206   0.089 -0.8714 -0.7655 -1.0386
  699THF     C812082   1.355   5.342   0.262 -0.9174  0.6364  0.1698
  699THF     C912083   1.453   5.455   0.263 -0.3231 -0.6516 -0.5532
  699THF    H1012084   1.376   5.257   0.327  0.5327  0.9999  0.2044
  699THF    H1112085   1.252   5.364   0.289 -0.8855  0.2123  0.6624
  699THF    H1212086   1.402   5.548   0.287 -1.2586 -1.7677  2.1915
  699THF    H1312087   1.534   5.448   0.337 -1.3126 -3.8273  0.3848
  700THF     O112088   0.745   2.181   4.050 -0.4219 -0.4532  0.0632
  700THF     C212089   0.864   2.252   4.015 -0.5041 -0.4645 -0.3815
  700THF     C312090   0.793   2.057   4.100  0.2239 -0.0575  0.4513
  700THF     H412091   0.845   2.359   4.022  0.3694 -0.3168 -0.2128
  700THF     H512092   0.906   2.223   3.919  1.4828  0.8236  0.0321
  700THF     H612093   0.705   2.019   4.153 -0.6699  2.6025  1.0451
  700THF     H712094   0.823   1.989   4.020  1.2304 -2.0663  2.4204
  700THF     C812095   0.920   2.087   4.179 -0.1305 -0.1936  1.3863
  700THF     C912096   0.964   2.218   4.122 -0.1539 -0.3401  0.1678
  700THF    H1012097   0.998   2.018   4.148  0.4821  1.3533 -0.7422
  700THF    H1112098   0.900   2.082   4.286 -1.1632  0.4828  1.2362
  700THF    H1212099   0.978   2.293   4.200 -0.1731 -0.4659  0.2919
  700THF    H1312100   1.062   2.210   4.075  0.3494  0.0849  1.1147
  701THF     O112101   2.792   2.633   4.958  0.1318  0.4237 -0.0344
  701THF     C212102   2.754   2.497   4.941 -0.1991  0.0239  0.0340
  701THF     C312103   2.893   2.651   4.862  0.0677 -0.1557  0.3666
  701THF     H412104   2.666   2.462   4.996 -0.7866  2.3884  0.7184
  701THF     H512105   2.837   2.436   4.977  0.0017  0.0543 -0.3781
  701THF     H612106   2.907   2.759   4.849 -1.2894 -0.1770 -1.8027
  701THF     H712107   2.986   2.606   4.897 -0.0056 -1.2980 -0.8225
  701THF     C812108   2.840   2.579   4.737  0.0637  0.8183 -0.4132
  701THF     C912109   2.749   2.470   4.789  0.2340  0.2522 -0.1513
  701THF    H1012110   2.914   2.531   4.674  1.1614  1.8222  0.0644
  701THF    H1112111   2.772   2.634   4.672 -1.3377 -0.2676  0.0761
  701THF    H1212112   2.651   2.498   4.750 -0.2501 -1.3036 -0.1099
  701THF    H1312113   2.781   2.369   4.763  1.3606  1.0698 -2.2875
  702THF     O112114   5.293   0.238   4.235 -0.4277 -0.5298  0.1477
  702THF     C212115   5.264   0.294   4.359  0.3541  0.0484  0.0921
  702THF     C312116   5.328   0.102   4.266 -0.5259  0.4742 -0.3935
  702THF     H412117   5.171   0.251   4.396 -0.8686  1.1751 -1.5273
  702THF     H512118   5.266   0.402   4.353 -0.8137  0.0424 -0.6995
  702THF     H612119   5.249   0.027   4.272  1.6460 -1.7986  1.8284
  702THF     H712120   5.390   0.065   4.185 -1.2379  0.7894 -1.1035
  702THF     C812121   5.405   0.109   4.397  0.5184 -0.3789  0.0881
  702THF     C912122   5.386   0.252   4.442 -0.1205  0.4916  0.8184
  702THF    H1012123   5.508   0.073   4.391  1.2044  1.6226 -1.9816
  702THF    H1112124   5.349   0.047   4.467 -0.6195  0.0696 -0.4071
  702THF    H1212125   5.382   0.268   4.549  3.9417 -2.4716  1.6497
  702THF    H1312126   5.474   0.306   4.407 -1.7045  1.7612 -1.4670
  703THF     O112127   1.478   5.030   3.879 -0.0754 -0.7520 -0.5853
  703THF     C212128   1.494   5.070   3.746  0.1473  0.3314  0.3253
  703THF     C312129   1.617   5.032   3.932  0.2937  0.2221  0.3183
  703THF     H412130   1.501   5.178   3.747 -1.0730  0.4370  2.2753
  703THF     H512131   1.404   5.048   3.688  1.3326 -2.0913 -0.7528
  703THF     H612132   1.653   5.134   3.947  0.6381  0.2684 -0.7047
  703THF     H712133   1.627   4.972   4.022 -1.5708  0.7863  0.9281
  703THF     C812134   1.695   4.967   3.817  0.1238 -0.2231  0.3424
  703THF     C912135   1.613   4.998   3.693  0.0130  0.2639 -0.2250
  703THF    H1012136   1.697   4.858   3.820  1.2355 -0.2185  0.3469
  703THF    H1112137   1.798   5.003   3.820  0.1656 -0.3859  2.2913
  703THF    H1212138   1.672   5.059   3.624 -0.7410 -1.6590 -2.7277
  703THF    H1312139   1.591   4.905   3.641  0.2657  0.5181 -0.7955
  704THF     O112140   1.274   1.538   1.521 -0.6730  0.1917  0.3314
  704THF     C212141   1.217   1.513   1.388  0.1113 -0.1634  0.1061
  704THF     C312142   1.167   1.525   1.609 -1.1047 -0.0660  0.1233
  704THF     H412143   1.207   1.405   1.375  1.2858 -0.5515  1.9433
  704THF     H512144   1.274   1.547   1.302 -0.6855 -0.4899 -0.5684
  704THF     H612145   1.166   1.416   1.617 -0.1672 -0.3164 -2.4824
  704THF     H712146   1.178   1.580   1.703 -1.5263  1.3165 -0.6114
  704THF     C812147   1.038   1.565   1.538 -0.2239 -0.7583  0.1735
  704THF     C912148   1.076   1.567   1.393  0.4704 -0.4465 -0.4926
  704THF    H1012149   1.014   1.666   1.571 -0.6132 -0.7471 -0.1324
  704THF    H1112150   0.950   1.502   1.554 -3.2234  3.1733  0.7975
  704THF    H1212151   0.996   1.512   1.342  0.9925 -2.3531  0.6298
  704THF    H1312152   1.066   1.664   1.345 -1.8896 -0.7382 -0.7317
  705THF     O112153   5.024   2.702   3.428 -0.3665  0.1626 -0.5962
  705THF     C212154   4.918   2.769   3.363  0.4970  0.0126  0.9493
  705THF     C312155   5.122   2.794   3.464 -0.2447  1.2850  0.0229
  705THF     H412156   4.827   2.710   3.375  1.0665 -0.8424  1.1398
  705THF     H512157   4.942   2.781   3.258  0.4526 -2.0464  0.6734
  705THF     H612158   5.168   2.770   3.560  0.1261 -3.4362 -1.0886
  705THF     H712159   5.198   2.791   3.386  0.2723  1.2216  0.5177
  705THF     C812160   5.062   2.927   3.457  0.1124  0.3003  0.5336
  705THF     C912161   4.914   2.903   3.435  0.3491 -0.5932 -0.2489
  705THF    H1012162   5.108   2.988   3.380 -1.7151  1.2012  0.1081
  705THF    H1112163   5.079   2.979   3.551  0.4784 -0.3314  0.8234
  705THF    H1212164   4.863   2.885   3.530  1.2825  0.1019  0.3956
  705THF    H1312165   4.858   2.983   3.387  0.2482  0.4782  1.5898
  706THF     O112166   0.843   3.111   1.479 -0.1636  0.1824 -0.0956
  706THF     C212167   0.855   3.035   1.598  0.7423 -0.0169  0.2398
  706THF     C312168   0.964   3.121   1.415  0.0455 -0.1491 -0.2040
  706THF     H412169   0.840   2.930   1.572  3.7979 -0.2361 -1.0115
  706THF     H512170   0.784   3.065   1.675 -1.1916 -2.9680 -0.2328
  706THF     H612171   0.972   3.074   1.317  0.4973  2.7062 -1.6348
  706THF     H712172   0.978   3.226   1.389  3.2591  0.3641  2.7657
  706THF     C812173   1.069   3.084   1.521 -0.2267  0.1226 -0.3355
  706THF     C912174   0.989   3.072   1.643  0.2681 -0.0222 -0.5469
  706THF    H1012175   1.148   3.154   1.547 -1.0132  0.5338  1.0199
  706THF    H1112176   1.110   2.983   1.517 -1.7741 -0.5298 -0.4192
  706THF    H1212177   1.017   3.007   1.727 -1.4926 -0.0331  0.0735
  706THF    H1312178   0.977   3.171   1.687 -2.1346  0.3494 -1.8773
  707THF     O112179   5.179   2.233   4.090  0.3979 -0.1360 -0.2894
  707THF     C212180   5.251   2.301   4.191 -0.2344  0.0469  0.2823
  707THF     C312181   5.235   2.100   4.092 -0.3686  0.3140  0.1633
  707THF     H412182   5.181   2.356   4.255  0.0310  0.4985  0.1844
  707THF     H512183   5.327   2.357   4.138 -0.8416 -0.7721 -1.5293
  707THF     H612184   5.178   2.025   4.036 -0.7324 -0.7915  1.9256
  707THF     H712185   5.332   2.103   4.044 -0.2484 -0.8223  0.3095
  707THF     C812186   5.256   2.075   4.246  0.1391  0.0659  0.1540
  707THF     C912187   5.319   2.199   4.281 -0.8782  0.5090 -0.4958
  707THF    H1012188   5.310   1.984   4.272  1.6476  0.4739 -1.3104
  707THF    H1112189   5.154   2.066   4.283  0.7109 -1.6623  1.4426
  707THF    H1212190   5.325   2.221   4.388  2.0307 -0.1151 -0.4255
  707THF    H1312191   5.424   2.187   4.253 -0.7798 -0.7196  0.3205
  708THF     O112192   1.765   5.371   4.999  0.3599  0.1518 -0.3295
  708THF     C212193   1.890   5.408   5.042 -0.1666 -0.2146  0.0548
  708THF     C312194   1.770   5.347   4.856 -0.4004  0.1043 -0.1745
  708THF     H412195   1.943   5.313   5.042  1.6139  0.6809 -2.5322
  708THF     H512196   1.892   5.464   5.136 -3.0288 -0.2033  0.2033
  708THF     H612197   1.824   5.257   4.828  1.2607  0.6067  1.2184
  708THF     H712198   1.676   5.353   4.801 -1.4809 -0.1349  1.5586
  708THF     C812199   1.855   5.472   4.808  0.0092  0.2896 -0.2216
  708THF     C912200   1.949   5.486   4.918  0.1907 -0.2981  0.8893
  708THF    H1012201   1.800   5.561   4.775  0.2952  0.8116  0.6683
  708THF    H1112202   1.907   5.449   4.714  2.6961 -0.6938  1.3919
  708THF    H1212203   2.047   5.443   4.895  0.1233 -1.0505  1.9439
  708THF    H1312204   1.962   5.590   4.947  0.6655 -0.7346  2.3017
  709THF     O112205   4.486   4.579   4.697 -0.6185  0.6272  0.4849
  709THF     C212206   4.495   4.720   4.669 -0.2926 -0.2868  0.3412
  709THF     C312207   4.601   4.549   4.772  0.3805  0.4083 -0.6259
  709THF     H412208   4.403   4.748   4.618 -0.2433 -2.7688 -1.3295
  709THF     H512209   4.582   4.751   4.611 -1.6431 -0.4299 -1.8852
  709THF     H612210   4.600   4.449   4.813 -1.3683  0.1900 -1.1139
  709THF     H712211   4.691   4.562   4.711 -0.1671 -0.2087 -1.5801
  709THF     C812212   4.603   4.659   4.875  0.4092  0.1686  0.0415
  709THF     C912213   4.526   4.774   4.813  0.1965  0.5291  0.1885
  709THF    H1012214   4.705   4.685   4.903 -0.4798  2.4750  1.4237
  709THF    H1112215   4.545   4.620   4.959  0.7713  0.3958  0.3972
  709THF    H1212216   4.437   4.807   4.866  2.0477  1.9003  2.6728
  709THF    H1312217   4.589   4.864   4.819 -0.6230  1.0255  2.4395
  710THF     O112218   4.885   2.461   1.594 -0.2945 -0.3792  0.0520
  710THF     C212219   4.925   2.422   1.722 -0.6462 -0.0512  0.0174
  710THF     C312220   5.012   2.483   1.532 -0.6123 -0.9576  0.0334
  710THF     H412221   4.839   2.390   1.781  0.5067  0.3436  1.9969
  710THF     H512222   4.967   2.502   1.781 -1.2619  0.8477 -0.7282
  710THF     H612223   5.002   2.494   1.424 -0.6932 -0.2569  0.1071
  710THF     H712224   5.050   2.574   1.578 -0.5172  0.3308 -2.4216
  710THF     C812225   5.101   2.364   1.570  0.0342 -0.5308  0.1276
  710THF     C912226   5.030   2.318   1.701 -0.3544  0.3734  0.8435
  710THF    H1012227   5.199   2.408   1.588 -0.3121  0.4829 -0.3914
  710THF    H1112228   5.104   2.287   1.493 -0.3787  0.1311 -0.5662
  710THF    H1212229   4.988   2.217   1.697 -2.5961  1.2122  1.4465
  710THF    H1312230   5.092   2.308   1.791  0.8399 -0.5934 -0.0561
  711THF     O112231   2.754   0.337   0.328  0.5594 -0.0251 -0.0809
  711THF     C212232   2.625   0.280   0.352  0.6130 -0.0301 -0.4170
  711THF     C312233   2.830   0.326   0.456 -0.3444  0.5439  0.2130
  711THF     H412234   2.636   0.173   0.366 -0.4358 -0.4405 -2.3920
  711THF     H512235   2.544   0.292   0.280 -0.0031  0.1020  0.2902
  711THF     H612236   2.901   0.243   0.458 -0.2208  0.6482  0.1290
  711THF     H712237   2.896   0.412   0.465  1.4426 -0.7508  0.0121
  711THF     C812238   2.730   0.321   0.566  0.0931 -0.1844  0.5593
  711THF     C912239   2.595   0.326   0.496  0.1393  0.9258  0.4106
  711THF    H1012240   2.734   0.405   0.635 -3.2843  1.9351 -1.5333
  711THF    H1112241   2.738   0.222   0.610 -2.4205 -0.9677 -0.5254
  711THF    H1212242   2.531   0.258   0.551 -0.4675 -0.4093 -1.8212
  711THF    H1312243   2.554   0.427   0.499 -0.3945  0.7435 -0.3682
  712THF     O112244   3.283   3.808   2.560  0.3412 -0.2687  0.0740
  712THF     C212245   3.367   3.845   2.448 -0.2278 -0.1609 -0.1449
  712THF     C312246   3.301   3.910   2.659  0.2474 -0.3682 -0.7022
  712THF     H412247   3.308   3.848   2.357  1.7994 -0.4992 -1.5454
  712THF     H512248   3.444   3.770   2.430  1.2796  0.6649  2.3351
  712THF     H612249   3.201   3.930   2.698 -0.1427 -0.1317 -1.8011
  712THF     H712250   3.377   3.862   2.721 -0.9129 -1.2814  0.0688
  712THF     C812251   3.346   4.036   2.593 -0.3956 -0.4846  0.6194
  712THF     C912252   3.426   3.982   2.481  0.5687 -0.2547  0.2500
  712THF    H1012253   3.392   4.102   2.668 -3.2987  0.2766  1.8593
  712THF    H1112254   3.265   4.086   2.540  0.2936 -1.7283 -1.7578
  712THF    H1212255   3.427   4.043   2.391  1.2368 -0.1192  0.3475
  712THF    H1312256   3.521   3.972   2.533  0.2550 -1.1938  0.6786
  713THF     O112257   4.769   4.648   0.232  0.2859 -0.1686  0.1248
  713THF     C212258   4.792   4.517   0.284  0.0065  0.0403  0.2829
  713THF     C312259   4.829   4.753   0.311 -0.0902  0.2244 -0.2026
  713THF     H412260   4.880   4.465   0.247  0.1035 -0.9458  1.7958
  713THF     H512261   4.709   4.448   0.268 -0.0661  0.3073 -0.5552
  713THF     H612262   4.912   4.801   0.259  2.2193 -0.0559  2.9542
  713THF     H712263   4.761   4.833   0.340 -2.5373 -1.8298  0.0711
  713THF     C812264   4.891   4.679   0.434  0.2777 -0.3161 -0.0969
  713THF     C912265   4.806   4.553   0.434 -0.1240 -0.0950  0.4146
  713THF    H1012266   4.896   4.722   0.535  1.5930 -2.5790  0.8926
  713THF    H1112267   4.997   4.658   0.419  0.0376  0.2744 -3.1095
  713THF    H1212268   4.854   4.463   0.473 -2.0678 -2.0975 -1.5532
  713THF    H1312269   4.713   4.555   0.491  1.3201 -0.6973  2.9937
  714THF     O112270   3.144   2.140   0.964  0.3571 -0.1445  1.2566
  714THF     C212271   3.125   2.210   0.838  0.2228  0.2922  0.1401
  714THF     C312272   3.274   2.090   0.959  0.6284  0.2419  0.3620
  714THF     H412273   3.176   2.306   0.852 -0.5574  0.4978  1.8992
  714THF     H512274   3.021   2.228   0.812  0.3139 -0.2309 -0.5942
  714THF     H612275   3.331   2.173   0.999  0.5499  0.5960 -0.2511
  714THF     H712276   3.294   2.006   1.027  4.0974  0.0947 -0.6331
  714THF     C812277   3.291   2.043   0.814  0.2437 -0.6154 -0.4778
  714THF     C912278   3.193   2.121   0.735  0.3485 -0.2654  0.1231
  714THF    H1012279   3.264   1.937   0.815  1.2011 -0.8680  0.9912
  714THF    H1112280   3.393   2.062   0.780  1.1239 -0.5727  2.0275
  714THF    H1212281   3.231   2.179   0.650  2.8407 -1.7460  0.1266
  714THF    H1312282   3.119   2.056   0.688  0.3355 -0.8044  0.8798
  715THF     O112283   0.920   1.831   0.027  0.6765  0.0170  0.0919
  715THF     C212284   0.809   1.920   0.039 -0.0229  0.0010  0.0514
  715THF     C312285   0.967   1.821   0.161  0.0653 -0.5248  0.0417
  715THF     H412286   0.734   1.852   0.081 -0.3261 -0.2975 -0.9378
  715THF     H512287   0.771   1.970  -0.050  1.5361  2.7207  0.8156
  715THF     H612288   0.887   1.762   0.206 -1.7814 -0.4399 -2.8633
  715THF     H712289   1.066   1.776   0.154 -0.3652 -1.4328 -0.2935
  715THF     C812290   0.978   1.962   0.217 -0.4993  0.2075 -0.1940
  715THF     C912291   0.864   2.020   0.138 -0.1618  0.2308  0.1058
  715THF    H1012292   1.075   2.007   0.198  0.3426 -1.9999 -1.3323
  715THF    H1112293   0.945   1.964   0.322 -1.0354 -2.7658 -0.2302
  715THF    H1212294   0.780   2.055   0.198 -1.0505 -0.0324 -0.9448
  715THF    H1312295   0.887   2.114   0.087  0.0146 -0.0857 -0.4009
  716THF     O112296   1.698   4.857   4.818  0.0789 -0.0448 -0.0156
  716THF     C212297   1.818   4.852   4.885  0.1608 -0.1283 -0.4985
  716THF     C312298   1.662   4.727   4.781 -0.2415 -0.0611  0.3470
  716THF     H412299   1.801   4.806   4.983 -1.5307  0.4341 -0.4912
  716THF     H512300   1.851   4.953   4.911  0.5940 -0.0393 -1.3767
  716THF     H612301   1.632   4.666   4.867 -2.8181  0.7262  0.1005
  716THF     H712302   1.571   4.730   4.721 -0.5860 -0.9894  0.7929
  716THF     C812303   1.792   4.671   4.726  0.3331  0.5977 -0.0635
  716THF     C912304   1.901   4.764   4.787 -0.1791  0.4727  0.0661
  716THF    H1012305   1.795   4.672   4.617 -0.8695  1.7991 -0.1080
  716THF    H1112306   1.816   4.571   4.761 -0.1551  0.8644  1.0695
  716THF    H1212307   1.978   4.706   4.837 -1.2779 -0.4192  0.7755
  716THF    H1312308   1.943   4.823   4.705  1.5161 -0.3555  0.3018
  717THF     O112309   4.401   3.154   2.822 -0.3970 -0.5163 -0.2451
  717THF     C212310   4.486   3.249   2.759 -0.1422 -0.7629 -0.4594
  717THF     C312311   4.466   3.109   2.942 -0.1058 -0.0142  0.0103
  717THF     H412312   4.434   3.344   2.744 -1.0262 -1.1214  0.2485
  717THF     H512313   4.527   3.210   2.666  0.2364 -0.5545 -0.3804
  717THF     H612314   4.427   3.157   3.032  0.8859  1.7373 -0.4442
  717THF     H712315   4.464   3.000   2.945  1.0122 -0.0877 -1.0936
  717THF     C812316   4.610   3.153   2.926 -0.7228  0.0267 -0.5003
  717THF     C912317   4.608   3.277   2.841  0.0112 -0.1401 -0.6938
  717THF    H1012318   4.669   3.086   2.863 -0.0090 -1.4590  1.6620
  717THF    H1112319   4.674   3.158   3.013  0.9945  3.0536 -1.7969
  717THF    H1212320   4.584   3.362   2.904 -0.2112 -1.6836  1.4107
  717THF    H1312321   4.704   3.290   2.790  0.0069  1.7669 -0.2831
  718THF     O112322   3.293   0.194   2.920  0.3564 -0.0288 -0.3117
  718THF     C212323   3.246   0.059   2.919 -0.4117 -0.3486 -0.3937
  718THF     C312324   3.410   0.198   2.992 -0.4297 -0.6343  0.2882
  718THF     H412325   3.165   0.037   2.849 -0.8109  2.0004 -0.7521
  718THF     H512326   3.205   0.041   3.018 -3.0274  0.2210 -1.2815
  718THF     H612327   3.477   0.277   2.959 -1.1311 -0.1188  0.0835
  718THF     H712328   3.394   0.215   3.099 -0.8558 -0.5835  0.2170
  718THF     C812329   3.475   0.059   2.978 -0.0435 -0.3323  0.2302
  718THF     C912330   3.379  -0.020   2.891 -0.5660  0.4819  0.2488
  718THF    H1012331   3.481   0.005   3.072  2.2823 -0.4453  0.0771
  718THF    H1112332   3.573   0.060   2.930 -0.2289  1.2015 -0.1691
  718THF    H1212333   3.411   0.004   2.790  0.0731  1.4116  0.6573
  718THF    H1312334   3.378  -0.129   2.903 -1.7227  0.3289 -0.9209
  719THF     O112335   1.710   4.023   3.372  0.0254 -0.4625  0.0266
  719THF     C212336   1.636   4.142   3.419 -0.4187 -0.4412  0.0912
  719THF     C312337   1.682   4.025   3.233 -0.2024 -0.0763 -0.0424
  719THF     H412338   1.681   4.235   3.383  0.6117 -0.6557  0.7878
  719THF     H512339   1.632   4.137   3.527 -1.3400  0.4939  0.1149
  719THF     H612340   1.737   4.111   3.193  1.3037 -1.1476 -0.3439
  719THF     H712341   1.723   3.940   3.178  3.4334  0.4061  1.6258
  719THF     C812342   1.533   4.045   3.231  0.5030 -0.5598 -0.0407
  719THF     C912343   1.499   4.117   3.358  0.1284  0.1035 -0.2302
  719THF    H1012344   1.472   3.959   3.206 -1.4937 -0.3011  3.3063
  719THF    H1112345   1.516   4.120   3.153 -0.8237 -1.8219 -1.0220
  719THF    H1212346   1.439   4.207   3.348 -3.5943 -1.6838  3.3023
  719THF    H1312347   1.436   4.048   3.414 -0.7770 -0.1575 -1.5269
  720THF     O112348   3.421   2.778   0.116 -0.6895  0.6853 -0.0692
  720THF     C212349   3.431   2.824   0.251  0.2019 -0.3894  0.5667
  720THF     C312350   3.487   2.878   0.047 -0.8576  0.0092  1.0065
  720THF     H412351   3.412   2.743   0.321  0.0091  0.1356  1.1303
  720THF     H512352   3.355   2.899   0.273 -0.1569 -0.7985  0.7385
  720THF     H612353   3.495   2.853  -0.059 -2.7918  0.5469  0.6988
  720THF     H712354   3.427   2.968   0.057  0.5985  1.2089 -0.4605
  720THF     C812355   3.615   2.897   0.125  0.0099 -0.1130 -0.5256
  720THF     C912356   3.572   2.877   0.270 -0.1137  0.1417  0.0738
  720THF    H1012357   3.663   2.995   0.123 -0.0817 -0.0480  0.1855
  720THF    H1112358   3.683   2.818   0.091 -0.9595 -0.9977 -0.4474
  720THF    H1212359   3.639   2.802   0.311  0.0310 -0.3461 -1.0185
  720THF    H1312360   3.575   2.966   0.333  0.1026  0.8137 -0.8636
  721THF     O112361   0.103   0.809   4.284  0.1245  0.1700 -0.3743
  721THF     C212362   0.150   0.676   4.259 -0.4497  0.0625  0.7189
  721THF     C312363  -0.017   0.832   4.210  0.2212 -0.6078 -0.9138
  721THF     H412364   0.212   0.649   4.344 -0.7803  1.4987  1.4346
  721THF     H512365   0.211   0.668   4.168 -0.3711  0.8228  0.6958
  721THF     H612366  -0.082   0.913   4.240 -1.2094 -2.3259  0.8348
  721THF     H712367   0.021   0.837   4.107 -2.6603  1.0787 -1.9980
  721THF     C812368  -0.088   0.694   4.226  0.2484  0.3650  0.0904
  721THF     C912369   0.023   0.588   4.266 -0.0592 -0.6912  0.1544
  721THF    H1012370  -0.140   0.659   4.137  0.5207 -0.8428  0.3913
  721THF    H1112371  -0.159   0.702   4.308 -0.5315  1.7610 -0.6720
  721THF    H1212372   0.011   0.535   4.360  1.6337 -1.5745 -0.0808
  721THF    H1312373   0.019   0.507   4.192 -0.7461 -1.0815  0.6157
  722THF     O112374   5.179   0.865   0.571 -0.4834 -0.0563 -0.0845
  722THF     C212375   5.092   0.804   0.477  0.4636 -0.5036  1.0985
  722THF     C312376   5.224   0.765   0.664  0.1229  0.3651 -0.0445
  722THF     H412377   5.155   0.761   0.399  0.2650  2.6537 -0.9880
  722THF     H512378   5.023   0.872   0.428 -2.6830 -3.3908  1.1959
  722THF     H612379   5.320   0.721   0.636 -0.5836 -0.6709 -0.9344
  722THF     H712380   5.252   0.808   0.760  2.0576 -1.8149  0.4575
  722THF     C812381   5.109   0.663   0.664 -0.2287  0.1999  0.5917
  722THF     C912382   5.019   0.706   0.561  0.4942  0.1467 -0.0572
  722THF    H1012383   5.067   0.648   0.763 -0.9020  0.8536  0.4138
  722THF    H1112384   5.161   0.575   0.626  1.0424  0.5203  1.5215
  722THF    H1212385   4.989   0.613   0.513  0.5035 -0.2262  0.6595
  722THF    H1312386   4.925   0.745   0.601 -0.1764  0.6037 -1.9541
  723THF     O112387   1.173   1.007   1.814 -0.6515  0.5624 -0.3972
  723THF     C212388   1.211   1.024   1.952  0.0660  0.2850  0.3194
  723THF     C312389   1.269   1.066   1.729 -0.2996 -0.3819 -0.1720
  723THF     H412390   1.181   0.942   2.018 -1.5926 -1.5897 -2.5406
  723THF     H512391   1.151   1.108   1.985 -1.0676 -0.4236  0.1049
  723THF     H612392   1.326   0.998   1.665 -1.6001 -2.1062  0.4320
  723THF     H712393   1.204   1.130   1.669 -0.0649  1.4622  1.4457
  723THF     C812394   1.366   1.142   1.818  0.2095 -0.0547 -0.0141
  723THF     C912395   1.360   1.062   1.944  0.7650  0.4820  0.0423
  723THF    H1012396   1.331   1.243   1.840  0.5076 -0.0746  0.5575
  723THF    H1112397   1.465   1.148   1.774  1.5222  0.2251  2.7527
  723THF    H1212398   1.425   0.975   1.940  0.4675  0.0990  2.3240
  723THF    H1312399   1.390   1.118   2.032 -0.4836  1.2076  0.0359
  724THF     O112400   4.480   1.666   3.820 -0.5300 -0.2116  0.1325
  724THF     C212401   4.564   1.598   3.916 -0.0772 -0.0825  0.1427
  724THF     C312402   4.436   1.783   3.886  1.1417  0.0622 -0.2381
  724THF     H412403   4.626   1.526   3.863 -0.9684 -0.3884 -0.5157
  724THF     H512404   4.504   1.548   3.993 -1.9273 -1.2111 -1.9209
  724THF     H612405   4.390   1.856   3.819  0.4097 -0.1650  0.0031
  724THF     H712406   4.361   1.755   3.960  0.3886  0.3083 -0.8953
  724THF     C812407   4.563   1.833   3.946 -0.0659 -0.0300  0.8445
  724THF     C912408   4.644   1.709   3.983  0.1006 -0.3328  0.1816
  724THF    H1012409   4.548   1.899   4.032  2.9216  0.5907  1.0081
  724THF    H1112410   4.615   1.888   3.868  0.6531 -1.5765  0.1853
  724THF    H1212411   4.748   1.721   3.954 -0.3590  1.9934 -0.7249
  724THF    H1312412   4.645   1.699   4.092  0.5641 -0.3001  0.1823
  725THF     O112413   2.989   5.306   4.239 -0.4178  0.0180 -0.5810
  725THF     C212414   2.899   5.246   4.142 -0.7265 -0.1284 -0.0462
  725THF     C312415   3.114   5.240   4.236  0.0477  0.7578 -0.3188
  725THF     H412416   2.821   5.314   4.107 -1.2938 -0.8556 -0.2011
  725THF     H512417   2.846   5.161   4.184  0.8503  0.0171  2.4981
  725THF     H612418   3.197   5.283   4.292 -1.8284  3.6200  0.4637
  725THF     H712419   3.104   5.140   4.278  1.3922  1.8029  2.7788
  725THF     C812420   3.130   5.234   4.088 -0.1740 -0.7687  0.3706
  725THF     C912421   2.994   5.192   4.034  0.1216  0.0848  0.1233
  725THF    H1012422   3.208   5.163   4.059  1.2127  0.0253  1.9610
  725THF    H1112423   3.154   5.332   4.048 -0.0940 -0.9797 -0.1013
  725THF    H1212424   2.964   5.227   3.935  3.5092  0.8412 -0.7354
  725THF    H1312425   2.995   5.083   4.022 -0.8224  0.2477 -1.7984
  726THF     O112426   5.391   1.353   4.806 -0.4398  0.2748  0.1387
  726THF     C212427   5.282   1.442   4.836 -0.0786 -0.0505  0.3119
  726THF     C312428   5.428   1.290   4.932 -0.1296 -0.8590  0.0999
  726THF     H412429   5.188   1.406   4.795  0.6363 -0.4189 -1.0576
  726THF     H512430   5.298   1.537   4.786 -0.7882 -1.4376 -2.7667
  726THF     H612431   5.376   1.195   4.937 -0.3507 -0.8863 -1.9589
  726THF     H712432   5.536   1.275   4.943 -0.1294 -0.8132  0.1638
  726THF     C812433   5.382   1.378   5.041  0.6763  0.0078  0.4507
  726THF     C912434   5.257   1.435   4.987 -0.3401  0.6061  0.1742
  726THF    H1012435   5.456   1.449   5.079  0.5294 -0.0677  0.8907
  726THF    H1112436   5.357   1.321   5.131  1.2582 -2.1278 -0.6777
  726THF    H1212437   5.169   1.376   5.012  1.6592 -2.4007  0.5541
  726THF    H1312438   5.237   1.538   5.018  0.3261  0.9065 -0.3703
  727THF     O112439   2.843   1.325   5.300  0.1872  0.5217 -0.1367
  727THF     C212440   2.976   1.331   5.259 -0.9675 -0.4494  0.2289
  727THF     C312441   2.796   1.189   5.320 -0.3780  0.0703  0.4983
  727THF     H412442   3.022   1.401   5.328 -1.2926  0.4774 -0.4707
  727THF     H512443   2.997   1.374   5.161  2.1550 -1.0613  0.5149
  727THF     H612444   2.766   1.163   5.421  1.9702 -1.3693  0.8869
  727THF     H712445   2.707   1.169   5.260 -1.1948  2.2785  0.8679
  727THF     C812446   2.907   1.097   5.271 -0.1146 -0.0387 -0.1913
  727THF     C912447   3.028   1.188   5.286 -0.3513 -0.2205  0.0511
  727THF    H1012448   2.904   1.068   5.166  1.3215 -0.4699 -0.1305
  727THF    H1112449   2.917   1.006   5.330  0.7170  0.2367  0.1018
  727THF    H1212450   3.082   1.170   5.379 -0.3654 -0.2425  0.0552
  727THF    H1312451   3.096   1.164   5.204  2.4093  0.7061  1.9076
  728THF     O112452   1.776   5.275   0.243  0.4929 -0.0623  0.3778
  728THF     C212453   1.905   5.305   0.287  0.4525 -0.0461  0.9826
  728THF     C312454   1.784   5.144   0.182  0.0960  0.5464 -0.3701
  728THF     H412455   1.890   5.378   0.367 -0.6174 -0.9147  1.6029
  728THF     H512456   1.979   5.339   0.214 -2.2846  1.8231 -1.1244
  728THF     H612457   1.684   5.100   0.189  0.6736 -0.6938  0.3730
  728THF     H712458   1.807   5.149   0.075  2.0204 -2.9259 -0.2618
  728THF     C812459   1.885   5.063   0.265  0.1604  0.3357  0.2913
  728THF     C912460   1.951   5.170   0.351  0.4149 -0.5182 -0.5773
  728THF    H1012461   1.965   5.013   0.210 -0.5623 -0.2789 -0.2324
  728THF    H1112462   1.825   4.994   0.325 -0.9346  0.2548 -0.8629
  728THF    H1212463   1.897   5.167   0.446 -0.7676 -0.3856 -1.2295
  728THF    H1312464   2.059   5.161   0.365  0.0287 -2.3895  2.2058
  729THF     O112465   2.364   5.196   0.662 -0.4250  0.3524  0.3631
  729THF     C212466   2.363   5.189   0.797 -0.1309  0.0008  0.3511
  729THF     C312467   2.251   5.273   0.621 -0.1360  0.3150 -0.0420
  729THF     H412468   2.389   5.288   0.833 -0.0979  0.7265 -1.5567
  729THF     H512469   2.436   5.113   0.826  1.4499  0.3406 -2.4541
  729THF     H612470   2.271   5.377   0.647 -0.1873  0.1985  0.4796
  729THF     H712471   2.223   5.281   0.516 -0.9309  3.5487  0.3102
  729THF     C812472   2.140   5.216   0.709  0.0662  0.4609 -0.2388
  729THF     C912473   2.214   5.164   0.834  0.0449  0.1308 -0.0205
  729THF    H1012474   2.096   5.132   0.656  1.9832 -0.0457 -1.1168
  729THF    H1112475   2.060   5.289   0.723  0.4670  1.0413 -0.8985
  729THF    H1212476   2.186   5.223   0.922  1.8737  0.2828  0.4939
  729THF    H1312477   2.194   5.059   0.856 -1.2167  0.2332 -0.5752
  730THF     O112478   4.201   0.422   0.282 -1.0411  0.0943 -0.0687
  730THF     C212479   4.125   0.436   0.404  0.2139  0.2266 -0.0442
  730THF     C312480   4.339   0.446   0.317  0.0071  0.0730  0.2323
  730THF     H412481   4.060   0.349   0.411 -0.4644  0.6455 -0.9903
  730THF     H512482   4.061   0.524   0.415 -1.0312 -0.7904  1.2764
  730THF     H612483   4.412   0.391   0.257 -0.0492  1.0641 -0.7773
  730THF     H712484   4.354   0.549   0.286 -4.4552  1.2777  1.3391
  730THF     C812485   4.357   0.421   0.468  0.3260  0.2569 -0.6605
  730THF     C912486   4.223   0.466   0.516  0.4680 -0.0127  0.3068
  730THF    H1012487   4.439   0.483   0.506  0.2029 -0.8906  1.6319
  730THF    H1112488   4.374   0.315   0.484 -0.7594  0.1791  0.1030
  730THF    H1212489   4.189   0.420   0.609 -0.7379  0.9057  0.3383
  730THF    H1312490   4.225   0.573   0.536  0.1831  0.1178 -0.3331
  731THF     O112491   1.356   2.296   2.927  0.2268  0.1837  0.3271
  731THF     C212492   1.212   2.264   2.933 -0.6428  0.2563  0.1113
  731THF     C312493   1.367   2.416   2.853 -0.7489  0.3065  0.3453
  731THF     H412494   1.205   2.216   3.031  1.4298 -0.7113 -0.1487
  731THF     H512495   1.178   2.198   2.853  1.6843  0.0924 -0.8297
  731THF     H612496   1.454   2.476   2.881 -0.4552 -0.8708  2.0744
  731THF     H712497   1.370   2.394   2.747 -0.4086 -0.1918  0.4537
  731THF     C812498   1.247   2.493   2.892  0.2895  0.1850 -0.4912
  731THF     C912499   1.141   2.390   2.915  0.5871 -0.2970  0.1332
  731THF    H1012500   1.215   2.566   2.818  1.2783  1.0596 -0.0781
  731THF    H1112501   1.263   2.551   2.983 -0.3524  2.2265 -1.6427
  731THF    H1212502   1.084   2.412   3.005  1.5138 -4.2300  1.9138
  731THF    H1312503   1.068   2.388   2.834 -1.5020 -0.7087  1.9180
  732THF     O112504   0.332   4.482   2.953 -0.2989 -0.1542  0.3624
  732THF     C212505   0.292   4.436   2.824  0.1565  0.4798 -0.1130
  732THF     C312506   0.424   4.588   2.942 -0.1920 -0.3277  0.3709
  732THF     H412507   0.240   4.519   2.778  0.2713  0.8558  0.4303
  732THF     H512508   0.236   4.342   2.815  0.8200  0.1015 -0.3813
  732THF     H612509   0.382   4.687   2.930  2.5675  1.0195  0.9222
  732THF     H712510   0.497   4.606   3.020  0.1806  0.0727 -0.0612
  732THF     C812511   0.501   4.546   2.812  0.4630 -0.6527  0.1598
  732THF     C912512   0.428   4.428   2.758 -0.1218  0.0659  0.3662
  732THF    H1012513   0.599   4.503   2.836 -0.5227 -3.2528 -0.1494
  732THF    H1112514   0.499   4.627   2.740  2.1436 -0.3334  0.4339
  732THF    H1212515   0.417   4.422   2.649 -0.6284  0.5070  0.3871
  732THF    H1312516   0.479   4.338   2.788  0.0089 -0.1269 -0.4045
  733THF     O112517   2.072   1.858   3.187 -0.1749 -0.0708  0.1957
  733THF     C212518   1.946   1.825   3.139 -0.1494 -0.3017  0.5914
  733THF     C312519   2.164   1.828   3.085 -0.2611 -0.9912 -0.4969
  733THF     H412520   1.907   1.891   3.061  1.3546  0.7517  0.6887
  733THF     H512521   1.873   1.811   3.218 -0.3171  1.4033  0.7737
  733THF     H612522   2.170   1.905   3.009 -0.1981  1.0552  1.4951
  733THF     H712523   2.262   1.818   3.134 -0.0441  3.0978  0.2077
  733THF     C812524   2.118   1.702   3.025 -0.0313  0.0509 -0.3502
  733THF     C912525   1.985   1.690   3.077 -0.1161 -0.1735  0.3031
  733THF    H1012526   2.172   1.609   3.047  1.5782  0.6294 -1.6555
  733THF    H1112527   2.129   1.703   2.916  0.9765 -1.8819 -0.3068
  733THF    H1212528   1.923   1.639   3.003  2.4367 -2.7018 -0.2865
  733THF    H1312529   2.002   1.622   3.161  2.4744  0.4533  0.3659
  734THF     O112530   1.887   0.513   1.356 -0.0168  0.4389 -0.7180
  734THF     C212531   2.001   0.485   1.271  0.6714  0.2023 -0.0737
  734THF     C312532   1.836   0.386   1.407 -0.0159 -0.6434 -0.2985
  734THF     H412533   2.078   0.560   1.288 -0.6363  1.4112  0.8162
  734THF     H512534   1.958   0.503   1.173  0.7033 -1.1944 -0.3587
  734THF     H612535   1.784   0.381   1.502 -1.6999  0.8266 -1.0759
  734THF     H712536   1.766   0.345   1.334 -1.2844 -0.7888  0.9627
  734THF     C812537   1.956   0.292   1.417 -0.9744  0.4920  0.3332
  734THF     C912538   2.035   0.337   1.295 -0.7544  0.7140  0.0688
  734THF    H1012539   1.927   0.187   1.417 -0.8222  0.4404 -0.5771
  734THF    H1112540   2.007   0.322   1.509 -0.2002 -0.8204  0.3545
  734THF    H1212541   2.142   0.344   1.313 -0.9401  1.2816  1.0388
  734THF    H1312542   2.017   0.286   1.201 -1.1347 -0.3366  0.6947
  735THF     O112543   5.201   3.232   1.316  0.1216 -0.1892  0.2493
  735THF     C212544   5.171   3.288   1.187  0.7322  0.2520  0.2316
  735THF     C312545   5.260   3.342   1.379 -0.0615  0.2004 -0.4684
  735THF     H412546   5.073   3.336   1.186 -0.2270 -1.5991  0.1167
  735THF     H512547   5.166   3.209   1.112  0.0439  1.5928 -1.2009
  735THF     H612548   5.174   3.406   1.396 -2.7342 -2.3489 -3.1800
  735THF     H712549   5.292   3.302   1.476  0.1127 -0.7754 -0.9151
  735THF     C812550   5.360   3.400   1.275  0.1124 -0.1211  0.0075
  735THF     C912551   5.278   3.386   1.148  0.2092  0.0034 -0.1410
  735THF    H1012552   5.446   3.335   1.265 -1.2643 -2.2385  1.1156
  735THF    H1112553   5.403   3.499   1.290  2.4353 -0.9433 -0.7871
  735THF    H1212554   5.237   3.482   1.119  2.9407  1.3872  0.2557
  735THF    H1312555   5.344   3.334   1.079  1.7415  0.2521  1.0717
  736THF     O112556   1.725   2.271   2.978  0.3529 -0.0798  0.2017
  736THF     C212557   1.686   2.154   3.052 -0.7290  0.1548  0.2730
  736THF     C312558   1.747   2.238   2.847 -0.1568  0.9913 -0.5727
  736THF     H412559   1.609   2.184   3.123 -1.2694  0.0701 -0.2668
  736THF     H512560   1.781   2.133   3.101  1.0605  0.7100 -2.7504
  736THF     H612561   1.680   2.300   2.788  0.2459  2.0982  0.0929
  736THF     H712562   1.851   2.263   2.826  1.6758 -2.8961  2.4874
  736THF     C812563   1.716   2.093   2.822  0.3121  0.8252 -0.7393
  736THF     C912564   1.631   2.056   2.949  0.3142 -0.0755  0.8851
  736THF    H1012565   1.811   2.040   2.820  0.0387  0.3159 -0.5232
  736THF    H1112566   1.657   2.087   2.730 -1.5144 -0.0005  0.4343
  736THF    H1212567   1.525   2.072   2.931  0.4586 -0.0186  0.0394
  736THF    H1312568   1.652   1.950   2.962  2.3870 -0.1313 -2.0187
  737THF     O112569   1.404   0.786   3.158 -0.9837  0.4628 -0.2183
  737THF     C212570   1.481   0.746   3.271 -0.2475 -0.7342 -0.2088
  737THF     C312571   1.422   0.924   3.148  0.2621  0.6937 -0.4710
  737THF     H412572   1.518   0.645   3.257 -2.1490 -1.5398  0.2932
  737THF     H512573   1.427   0.742   3.366  0.5288  1.0673  0.3599
  737THF     H612574   1.465   0.944   3.050 -0.6319  0.4661 -0.9205
  737THF     H712575   1.330   0.982   3.160  0.4735  0.6841  1.5092
  737THF     C812576   1.529   0.962   3.257 -0.5899 -0.0285  0.6479
  737THF     C912577   1.598   0.839   3.283  0.2163 -0.1122  0.3115
  737THF    H1012578   1.483   0.989   3.352  0.3875  2.4175  0.4979
  737THF    H1112579   1.593   1.049   3.240 -0.5659  0.0033  0.8909
  737THF    H1212580   1.669   0.827   3.201 -2.1537 -1.9104 -1.6368
  737THF    H1312581   1.652   0.841   3.377  0.8138 -0.2621 -0.0200
  738THF     O112582   3.491   3.094   0.674 -0.1595 -0.1557 -0.0875
  738THF     C212583   3.385   3.060   0.580  0.2579 -0.2386 -0.0495
  738THF     C312584   3.448   3.054   0.802  0.0562  0.2054 -0.0085
  738THF     H412585   3.396   2.951   0.577 -0.2840 -0.4084  2.2423
  738THF     H512586   3.390   3.110   0.484  0.0946  0.9325  0.5319
  738THF     H612587   3.457   2.946   0.812  2.5451  0.4193  0.9465
  738THF     H712588   3.519   3.106   0.867 -2.9333  2.6452  1.5373
  738THF     C812589   3.303   3.092   0.810  0.4236 -0.6935  0.1970
  738THF     C912590   3.260   3.107   0.657  0.1920 -0.1823 -0.6734
  738THF    H1012591   3.295   3.182   0.870  1.3121 -1.2975  1.2521
  738THF    H1112592   3.246   3.007   0.848  0.8751 -0.6590  0.9572
  738THF    H1212593   3.171   3.046   0.641 -0.6815  0.4810  1.3580
  738THF    H1312594   3.243   3.214   0.642 -1.0253 -0.3461 -0.5384
  739THF     O112595   2.031   5.391   2.616 -0.0198 -0.3178  0.7740
  739THF     C212596   2.000   5.345   2.488  0.3586  0.9875  0.5617
  739THF     C312597   1.964   5.309   2.704  0.7652 -0.1477  0.7840
  739THF     H412598   2.033   5.243   2.474  0.9433  1.2128  0.2842
  739THF     H512599   2.031   5.416   2.411 -1.2423  0.9201 -0.2006
  739THF     H612600   2.019   5.217   2.727 -1.5175 -1.7848  0.1006
  739THF     H712601   1.951   5.361   2.798 -0.2017  0.2412  0.4445
  739THF     C812602   1.820   5.297   2.639  0.4076 -0.3150 -0.5339
  739THF     C912603   1.848   5.341   2.492 -0.9633  0.4333 -0.0010
  739THF    H1012604   1.755   5.365   2.695  0.8860 -1.1420  1.1077
  739THF    H1112605   1.787   5.198   2.668  3.2188 -1.2977 -0.3793
  739THF    H1212606   1.800   5.275   2.419 -0.1782  0.1358 -0.2615
  739THF    H1312607   1.812   5.443   2.484  2.5830  2.0009  1.8594
  740THF     O112608   2.263   2.073   2.712 -0.3019 -0.0145  0.2224
  740THF     C212609   2.124   2.088   2.733 -0.3100 -0.5709  0.4706
  740THF     C312610   2.301   2.121   2.581  0.2685  0.6841 -0.1940
  740THF     H412611   2.090   2.187   2.762 -1.2302 -0.8182  0.2756
  740THF     H512612   2.112   2.016   2.815  2.0392 -0.6610  0.8249
  740THF     H612613   2.331   2.225   2.579  1.5785  0.3101 -0.7535
  740THF     H712614   2.383   2.063   2.539  1.5682 -0.6492  3.7345
  740THF     C812615   2.168   2.105   2.498 -0.3374  0.0164  0.2699
  740THF     C912616   2.068   2.043   2.592 -0.1681 -0.2340 -0.6932
  740THF    H1012617   2.175   2.048   2.405  0.9090 -1.3908  1.1839
  740THF    H1112618   2.133   2.201   2.460 -1.7487 -1.0774 -1.3778
  740THF    H1212619   1.964   2.068   2.572 -0.2096  0.8432  0.7167
  740THF    H1312620   2.071   1.934   2.590 -1.4719 -0.2989 -0.1726
  741THF     O112621   2.698   3.237   0.791  0.6680 -0.0974 -0.3289
  741THF     C212622   2.641   3.200   0.669  0.3456 -0.7944 -0.3994
  741THF     C312623   2.803   3.337   0.763  0.7345 -0.2736 -0.2986
  741THF     H412624   2.559   3.267   0.643  0.3079 -0.1146  1.3576
  741THF     H512625   2.601   3.099   0.671 -0.3428 -0.5164  0.2287
  741THF     H612626   2.767   3.438   0.743  3.5965  0.6219 -1.4593
  741THF     H712627   2.873   3.340   0.846  1.1218  1.1276 -0.6377
  741THF     C812628   2.868   3.280   0.640 -0.6805 -0.0759  0.6314
  741THF     C912629   2.755   3.216   0.562 -0.0453  0.1099  0.5403
  741THF    H1012630   2.948   3.210   0.667 -0.3003  0.5758  1.2337
  741THF    H1112631   2.916   3.363   0.588 -0.4553 -0.0036  0.9529
  741THF    H1212632   2.730   3.287   0.482  1.6375  1.2922  1.0215
  741THF    H1312633   2.777   3.120   0.515 -0.1931 -0.1619  1.0190
  742THF     O112634   2.187   4.780   3.966 -0.3572  0.0884  0.3773
  742THF     C212635   2.126   4.884   3.885  0.3650  0.4958  0.2638
  742THF     C312636   2.280   4.713   3.873 -0.3442 -0.5435  1.4993
  742THF     H412637   2.067   4.949   3.950 -0.3022  0.1494  0.0226
  742THF     H512638   2.063   4.843   3.805 -2.8406  0.7614  2.4512
  742THF     H612639   2.346   4.658   3.940  1.2698 -1.1031 -0.4576
  742THF     H712640   2.222   4.654   3.802 -2.6387  0.8898  2.0572
  742THF     C812641   2.338   4.832   3.800 -0.3052 -0.1375  0.5216
  742THF     C912642   2.246   4.947   3.823 -0.7958 -0.2051  0.6270
  742THF    H1012643   2.359   4.803   3.697  2.6583  0.1369  0.9695
  742THF    H1112644   2.427   4.871   3.850  0.4718  1.6639 -2.0543
  742THF    H1212645   2.276   5.005   3.910 -0.1683  0.1493  0.1783
  742THF    H1312646   2.223   5.019   3.744  1.8624 -1.3215 -1.3188
  743THF     O112647   4.960   1.208   0.766 -0.1848  0.6799  0.5068
  743THF     C212648   4.948   1.069   0.738  0.0246 -0.1334 -0.2982
  743THF     C312649   4.839   1.274   0.724 -0.5147  0.6634  0.8449
  743THF     H412650   4.891   1.032   0.823  1.6589  0.8350  1.3027
  743THF     H512651   5.043   1.014   0.741  0.1307  0.0484 -0.3210
  743THF     H612652   4.762   1.248   0.797  0.1113 -1.6566  0.7491
  743THF     H712653   4.855   1.382   0.732 -1.8966  0.8472  1.5546
  743THF     C812654   4.826   1.220   0.581  0.1314 -0.0917 -0.6233
  743THF     C912655   4.883   1.076   0.594  0.2008  0.7146 -0.0701
  743THF    H1012656   4.899   1.283   0.530  0.2127  1.4436  1.2769
  743THF    H1112657   4.723   1.220   0.545  0.9553 -1.2241 -3.2442
  743THF    H1212658   4.791   1.017   0.600 -0.2042  1.2682 -0.6749
  743THF    H1312659   4.946   1.055   0.508 -1.1930 -1.5844 -0.6309
  744THF     O112660   2.154   5.321   1.277 -0.0030 -0.1162 -0.9645
  744THF     C212661   2.033   5.360   1.217 -0.3251 -0.2759 -0.4984
  744THF     C312662   2.168   5.413   1.388 -0.0937 -0.2423 -0.0322
  744THF     H412663   1.998   5.281   1.150 -0.7276 -1.3442  0.9440
  744THF     H512664   2.062   5.446   1.156 -0.9222  0.5700  0.3978
  744THF     H612665   2.257   5.398   1.450 -0.8885  0.9084  1.4693
  744THF     H712666   2.183   5.511   1.341 -0.6394  0.1437  0.5820
  744THF     C812667   2.033   5.420   1.460  0.2129  0.3884  0.8902
  744THF     C912668   1.942   5.394   1.339 -0.7069 -0.8605 -0.6636
  744THF    H1012669   2.018   5.517   1.507  0.9256  1.1218 -0.3384
  744THF    H1112670   2.017   5.340   1.532 -0.7195  0.0311  0.2948
  744THF    H1212671   1.871   5.315   1.363  0.1124 -1.6712 -0.8563
  744THF    H1312672   1.883   5.484   1.319 -0.6368 -0.6233  0.1611
  745THF     O112673   3.067   4.558   4.679  0.3726 -0.3863 -0.0286
  745THF     C212674   3.095   4.543   4.820  0.0684 -0.8458  0.2060
  745THF     C312675   3.171   4.476   4.608 -0.1580 -0.3192 -0.3758
  745THF     H412676   3.042   4.456   4.858 -0.6196 -0.1886  0.7910
  745THF     H512677   3.055   4.631   4.871 -1.3461 -1.3747  0.0463
  745THF     H612678   3.125   4.385   4.570  1.6939 -1.2402 -0.5361
  745THF     H712679   3.207   4.536   4.524 -0.3200 -0.0978 -0.2887
  745THF     C812680   3.276   4.438   4.719  0.1730 -0.0105 -0.3697
  745THF     C912681   3.246   4.534   4.826  0.6300 -0.4747  0.3850
  745THF    H1012682   3.375   4.456   4.677 -0.4526  0.7467 -1.5702
  745THF    H1112683   3.272   4.336   4.757 -1.9915 -0.5492 -1.8491
  745THF    H1212684   3.285   4.504   4.923  0.9694 -0.4507  0.2583
  745THF    H1312685   3.288   4.631   4.801  0.0451 -0.4911 -0.7499
  746THF     O112686   4.086   1.576   3.786  0.6064  0.4300 -0.4184
  746THF     C212687   4.084   1.719   3.807 -0.1368  0.1104  0.6929
  746THF     C312688   4.139   1.512   3.898  0.2303  0.2978 -0.1023
  746THF     H412689   4.000   1.771   3.761  0.2442  1.1804  1.1789
  746THF     H512690   4.181   1.760   3.780 -1.2158  2.6456  0.3664
  746THF     H612691   4.111   1.407   3.908 -0.9934  0.5363 -0.8577
  746THF     H712692   4.248   1.505   3.890  0.2897 -0.0543  0.9012
  746THF     C812693   4.100   1.597   4.018  0.4310  0.2444  0.7438
  746THF     C912694   4.062   1.729   3.958  0.1868 -0.4791  0.2227
  746THF    H1012695   4.179   1.607   4.092 -0.4916 -1.2098  1.9880
  746THF    H1112696   4.017   1.547   4.067 -0.2071 -1.4633 -1.8806
  746THF    H1212697   3.955   1.740   3.976  0.5151 -0.1232  2.0894
  746THF    H1312698   4.123   1.813   3.991  2.1902 -2.0548  0.7327
  747THF     O112699   2.731   0.134   3.618 -0.2931 -0.0156 -0.1755
  747THF     C212700   2.695   0.277   3.613 -0.1050  0.3968  0.2599
  747THF     C312701   2.865   0.130   3.572  0.1823  0.2659  0.1638
  747THF     H412702   2.600   0.279   3.666  0.8247 -0.4977  2.0228
  747THF     H512703   2.672   0.309   3.511 -0.9559  1.2887  0.7192
  747THF     H612704   2.914   0.033   3.582  1.8410  1.0141 -0.3662
  747THF     H712705   2.870   0.162   3.468 -1.1136 -1.1044 -0.3392
  747THF     C812706   2.928   0.242   3.645 -0.4977  0.1328 -0.2897
  747THF     C912707   2.817   0.341   3.681 -0.2115 -0.1811 -0.1562
  747THF    H1012708   3.011   0.285   3.589  0.8201 -1.5115  0.3389
  747THF    H1112709   2.964   0.202   3.739  0.2673 -1.6580 -1.3031
  747THF    H1212710   2.805   0.346   3.789  2.1696 -1.1469  0.2134
  747THF    H1312711   2.838   0.443   3.652 -2.5385  0.4273  0.0667
  748THF     O112712   4.224   1.315   2.836  0.4509 -0.0737  0.1043
  748THF     C212713   4.167   1.438   2.869  0.1033 -0.0266  0.5738
  748THF     C312714   4.134   1.211   2.842  0.3834 -0.1877  0.2693
  748THF     H412715   4.225   1.517   2.822 -1.0944  1.1309  0.9688
  748THF     H512716   4.164   1.452   2.977 -0.1311 -0.1556  0.5854
  748THF     H612717   4.168   1.126   2.782  1.1299  0.6879 -0.5794
  748THF     H712718   4.120   1.170   2.942 -2.9110  2.7566  1.2272
  748THF     C812719   4.008   1.273   2.784 -0.0827  0.2748 -0.0306
  748THF     C912720   4.033   1.418   2.800  0.8036 -0.2525 -0.3827
  748THF    H1012721   3.925   1.232   2.843 -0.1507  0.2431 -0.1490
  748THF    H1112722   3.987   1.251   2.680 -0.8507  0.5417  0.0551
  748THF    H1212723   4.039   1.463   2.701  1.9840 -0.4920 -0.4405
  748THF    H1312724   3.948   1.469   2.846 -0.5941  0.0344 -3.0721
  749THF     O112725   0.436   2.481   2.953 -1.1441  0.0061  0.4610
  749THF     C212726   0.444   2.463   2.808 -0.0458  0.0342 -0.6434
  749THF     C312727   0.325   2.574   2.971 -0.3829  0.6802 -0.7521
  749THF     H412728   0.375   2.390   2.767 -1.1045  1.5509 -1.6468
  749THF     H512729   0.546   2.437   2.777 -0.2841 -0.7117 -0.8172
  749THF     H612730   0.234   2.520   2.944 -0.3418 -0.8318  1.8000
  749THF     H712731   0.313   2.608   3.074 -1.6126  1.7313 -1.2148
  749THF     C812732   0.350   2.679   2.868  0.4783  0.0904 -0.7110
  749THF     C912733   0.415   2.604   2.751  0.2073  0.0799 -0.2231
  749THF    H1012734   0.417   2.753   2.913 -1.0232 -0.2801  2.3606
  749THF    H1112735   0.255   2.726   2.846  0.4545  0.0273 -0.7440
  749THF    H1212736   0.354   2.591   2.662 -0.2089  0.9087 -0.0677
  749THF    H1312737   0.509   2.647   2.717 -0.0265 -0.3756 -1.4903
  750THF     O112738   4.860   1.225   5.237 -0.8068  0.1900 -0.0721
  750THF     C212739   4.993   1.170   5.226  0.4086 -0.0516 -0.5384
  750THF     C312740   4.803   1.243   5.111 -0.3912  0.0601 -0.3491
  750THF     H412741   5.004   1.090   5.300 -0.4149 -0.8746 -1.2698
  750THF     H512742   5.060   1.252   5.250 -0.7947  1.0773 -0.8874
  750THF     H612743   4.722   1.174   5.088  1.4252 -1.2298 -3.5128
  750THF     H712744   4.775   1.345   5.087  0.5019  0.4377  0.1662
  750THF     C812745   4.917   1.203   5.016 -0.0399 -0.9029  0.4679
  750THF     C912746   5.011   1.116   5.092 -0.7301 -0.7341 -0.2544
  750THF    H1012747   4.973   1.294   4.994 -1.5968  0.8341  3.1558
  750THF    H1112748   4.881   1.155   4.924  0.4598  0.9020 -0.7270
  750THF    H1212749   4.985   1.011   5.082 -1.4988 -0.6960  1.1884
  750THF    H1312750   5.116   1.136   5.070  0.0266 -0.1774  3.2776
  751THF     O112751   0.834   3.074   4.212 -0.5970  0.1231 -0.2879
  751THF     C212752   0.780   3.201   4.190 -0.1273 -0.4226  0.0351
  751THF     C312753   0.927   3.060   4.107 -0.2960  0.2899 -0.0086
  751THF     H412754   0.741   3.244   4.282  2.2014 -0.7357  1.2431
  751THF     H512755   0.710   3.200   4.106  0.5525  2.0669 -0.6557
  751THF     H612756   0.980   2.964   4.110 -2.4304 -1.0055 -1.1182
  751THF     H712757   0.873   3.061   4.013 -0.4071  1.1339  0.0614
  751THF     C812758   1.006   3.183   4.118 -0.4099 -0.4032  0.6452
  751THF     C912759   0.900   3.283   4.163  0.1081  0.2511 -0.8000
  751THF    H1012760   1.042   3.216   4.020  1.0000 -0.4864  1.1078
  751THF    H1112761   1.086   3.178   4.192  0.5491  4.8618  0.3668
  751THF    H1212762   0.933   3.332   4.255  2.7461 -0.1685 -1.4493
  751THF    H1312763   0.881   3.367   4.095 -0.5662 -1.2709 -2.5819
  752THF     O112764   2.327   0.141   4.335 -0.4172  0.5276 -0.5679
  752THF     C212765   2.243   0.056   4.250 -0.5276 -0.0430 -0.6396
  752THF     C312766   2.416   0.208   4.258  0.0155  0.5864 -0.1006
  752THF     H412767   2.156   0.107   4.207 -0.3248 -0.1911 -1.2415
  752THF     H512768   2.215  -0.034   4.303  1.1169  0.2545  0.8053
  752THF     H612769   2.376   0.304   4.224 -1.8578 -0.0467  0.1865
  752THF     H712770   2.493   0.225   4.333 -1.1052 -0.2614  1.3135
  752THF     C812771   2.458   0.102   4.154 -0.2903 -0.6079  0.1673
  752THF     C912772   2.340   0.011   4.142  0.0817 -0.1978 -0.4747
  752THF    H1012773   2.544   0.049   4.196 -1.3900 -0.3439  2.9608
  752THF    H1112774   2.487   0.152   4.062 -2.1857  0.6316  0.1981
  752THF    H1212775   2.292   0.031   4.046 -0.4619 -1.1691 -0.4156
  752THF    H1312776   2.360  -0.094   4.162  1.0449 -0.0434 -0.5825
  753THF     O112777   1.648   2.826   3.670  0.5654  0.4606 -0.2210
  753THF     C212778   1.636   2.745   3.551  0.7822  0.2705 -0.2401
  753THF     C312779   1.725   2.759   3.768 -0.0774 -0.8555  0.4296
  753THF     H412780   1.606   2.808   3.467 -1.1597 -0.3504 -0.0666
  753THF     H512781   1.565   2.663   3.565 -0.8377  1.7675  0.7338
  753THF     H612782   1.750   2.813   3.859  2.0420  3.5867 -2.4438
  753THF     H712783   1.684   2.662   3.797  1.4976 -1.3060  1.3116
  753THF     C812784   1.841   2.738   3.678 -0.3649  0.2057  0.0975
  753THF     C912785   1.788   2.695   3.544  0.0977  0.1207 -0.2303
  753THF    H1012786   1.913   2.662   3.707 -0.1888 -0.5680 -2.1900
  753THF    H1112787   1.894   2.832   3.663 -2.1708  0.9810 -2.0439
  753THF    H1212788   1.854   2.743   3.472  1.8748  0.7645  1.7187
  753THF    H1312789   1.796   2.587   3.534 -1.5604 -0.1207  0.5789
  754THF     O112790   3.038   4.187   0.124  0.3581 -0.7954 -0.1246
  754THF     C212791   2.979   4.066   0.082  0.1688 -0.2669  0.5581
  754THF     C312792   2.931   4.263   0.183  0.1498 -0.0722 -0.3435
  754THF     H412793   3.051   3.985   0.094 -0.8231 -0.7804  4.8298
  754THF     H512794   2.943   4.081  -0.020  0.3783 -1.6252  0.2624
  754THF     H612795   2.981   4.337   0.246  0.5020  0.8725 -1.7055
  754THF     H712796   2.877   4.312   0.103 -0.2144 -1.7713 -1.1848
  754THF     C812797   2.853   4.166   0.266  0.0247  0.4158  0.2670
  754THF     C912798   2.864   4.042   0.183  0.0043  0.4248 -0.1031
  754THF    H1012799   2.756   4.205   0.293 -0.9871 -2.5714  1.3046
  754THF    H1112800   2.904   4.140   0.358 -0.1827 -2.5498 -0.3333
  754THF    H1212801   2.889   3.957   0.247  1.9920 -0.1817 -1.5800
  754THF    H1312802   2.774   4.010   0.131  0.2774  0.7728 -0.8069
  755THF     O112803   2.910   4.296   4.223 -0.5322 -0.1622  0.1736
  755THF     C212804   2.805   4.332   4.306 -0.2411 -0.4607 -0.6535
  755THF     C312805   2.930   4.399   4.128  0.2622  0.5982 -0.7124
  755THF     H412806   2.840   4.391   4.391  0.0025  0.2040 -1.2066
  755THF     H512807   2.759   4.244   4.351 -2.9483  0.6119 -1.0788
  755THF     H612808   3.018   4.455   4.162 -1.1247  2.3256  0.2448
  755THF     H712809   2.955   4.365   4.028  1.2439 -0.7702 -0.0201
  755THF     C812810   2.804   4.484   4.131  0.4094  0.0829  0.3774
  755THF     C912811   2.705   4.406   4.221 -0.3679  0.3214  0.0697
  755THF    H1012812   2.784   4.512   4.028  0.5869  1.8195  0.7753
  755THF    H1112813   2.828   4.577   4.183 -0.3974 -0.6204  2.0853
  755THF    H1212814   2.642   4.462   4.290  0.0608 -2.7585  3.2361
  755THF    H1312815   2.650   4.334   4.160  2.1972 -0.7184 -1.1492
  756THF     O112816   3.825   0.758   3.139 -0.5880 -0.2970 -0.4921
  756THF     C212817   3.735   0.692   3.051 -0.2544  0.1716 -0.6757
  756THF     C312818   3.857   0.679   3.248 -0.2354  0.2432  0.4228
  756THF     H412819   3.785   0.618   2.989 -2.9108 -1.4989 -0.9848
  756THF     H512820   3.684   0.766   2.990  1.2250  0.7737 -1.2343
  756THF     H612821   3.933   0.607   3.221  1.2925  0.9691  2.5098
  756THF     H712822   3.900   0.743   3.325  0.2545 -0.4998  0.7670
  756THF     C812823   3.728   0.606   3.276  0.6375  0.4494  0.5265
  756THF     C912824   3.638   0.621   3.149  0.4066 -0.1183  0.5461
  756THF    H1012825   3.674   0.641   3.364  0.3826 -1.0116  0.9767
  756THF    H1112826   3.749   0.501   3.300 -3.5094 -0.0740  2.7132
  756THF    H1212827   3.593   0.528   3.112  0.9053 -0.4664  0.8026
  756THF    H1312828   3.553   0.684   3.172 -0.2606 -0.5678 -0.5807
  757THF     O112829   2.141   4.670   0.512  0.2368  0.0068  0.3898
  757THF     C212830   2.273   4.619   0.532  0.0128  0.1043 -0.0480
  757THF     C312831   2.077   4.673   0.639 -0.2199 -0.1077  0.0514
  757THF     H412832   2.350   4.656   0.464  0.0369 -1.5620 -1.0037
  757THF     H512833   2.278   4.510   0.543  2.4686  0.0946 -0.6623
  757THF     H612834   1.986   4.733   0.634  0.0746  0.4076  0.6684
  757THF     H712835   2.041   4.578   0.678 -3.3872  1.1724  0.5554
  757THF     C812836   2.187   4.752   0.715  0.6746  0.0417  0.5184
  757THF     C912837   2.314   4.678   0.669 -0.2464 -1.0160  0.2271
  757THF    H1012838   2.165   4.751   0.822  2.8454  1.1393  1.0176
  757THF    H1112839   2.183   4.860   0.699 -0.4110  0.1023  1.1013
  757THF    H1212840   2.403   4.742   0.672 -0.7288 -0.3171 -0.1846
  757THF    H1312841   2.334   4.594   0.735 -1.8490 -0.4260  1.5520
  758THF     O112842   2.804   4.202   0.798 -0.2903 -0.4786 -0.3562
  758THF     C212843   2.791   4.348   0.792  0.0389  0.4632 -0.3058
  758THF     C312844   2.708   4.140   0.729  0.1750  0.4563  0.0617
  758THF     H412845   2.885   4.378   0.747  1.9936 -4.3860 -0.0457
  758THF     H512846   2.778   4.406   0.883 -2.2109 -0.8409  0.2760
  758THF     H612847   2.747   4.064   0.661  1.4425 -0.0391  1.2989
  758THF     H712848   2.638   4.100   0.802  2.5830 -1.1516  1.6095
  758THF     C812849   2.628   4.241   0.647  0.5478  0.1451 -0.5032
  758THF     C912850   2.669   4.372   0.707 -0.8885  0.2152 -0.7474
  758THF    H1012851   2.521   4.222   0.655  0.4136  0.1768 -2.0307
  758THF    H1112852   2.653   4.230   0.542  1.5367  0.8084 -0.3440
  758THF    H1212853   2.689   4.446   0.629 -0.5964  1.3320  0.3527
  758THF    H1312854   2.597   4.419   0.774 -1.5005  1.5027 -2.2431
  759THF     O112855   2.301   0.291   3.637 -0.0707 -0.3121  0.0602
  759THF     C212856   2.160   0.324   3.624  0.6693 -0.1056  0.2043
  759THF     C312857   2.304   0.256   3.783  0.5887  0.3618 -0.1248
  759THF     H412858   2.138   0.321   3.517  1.4205  0.8002  0.0165
  759THF     H512859   2.140   0.424   3.661  0.1756 -0.6579  1.4895
  759THF     H612860   2.397   0.212   3.817  0.8359 -0.8880 -2.2152
  759THF     H712861   2.294   0.339   3.853  1.5656  0.5087 -0.1532
  759THF     C812862   2.179   0.163   3.801  0.7013  0.3245  0.2966
  759THF     C912863   2.079   0.215   3.705 -0.2058  0.0038  0.1508
  759THF    H1012864   2.151   0.155   3.906 -0.4338 -0.2014 -0.0271
  759THF    H1112865   2.208   0.067   3.758 -0.2864  0.5195 -0.8607
  759THF    H1212866   2.036   0.149   3.629  2.0261  0.2168 -1.4072
  759THF    H1312867   1.995   0.257   3.759 -0.2478 -0.0849  0.1543
  760THF     O112868   4.672   4.589   4.121 -0.0207 -0.0722  0.1121
  760THF     C212869   4.652   4.540   3.987 -0.3336  0.0682  0.2090
  760THF     C312870   4.671   4.731   4.122 -1.0107  0.6821  0.4212
  760THF     H412871   4.546   4.517   3.973 -0.1255 -0.3238 -0.8052
  760THF     H512872   4.715   4.453   3.972  1.5131  1.3817  0.0404
  760THF     H612873   4.573   4.763   4.158 -1.6469  0.4661 -1.0325
  760THF     H712874   4.743   4.761   4.198  0.2809 -1.9715  0.3489
  760THF     C812875   4.710   4.768   3.976 -0.1930  0.5000  0.0226
  760THF     C912876   4.684   4.648   3.884 -0.1430 -0.4641  0.0331
  760THF    H1012877   4.814   4.801   3.977 -0.3575  1.1790 -1.9485
  760THF    H1112878   4.655   4.854   3.937 -2.0376 -0.4574  0.4069
  760THF    H1212879   4.608   4.648   3.806  0.7544 -2.8535 -0.9325
  760THF    H1312880   4.775   4.619   3.832 -0.9334  0.5235 -2.0147
  761THF     O112881   3.739   1.362   3.568  0.1825 -0.5665  0.1046
  761THF     C212882   3.638   1.434   3.494 -0.1590 -0.1222 -0.0927
  761THF     C312883   3.792   1.449   3.659  0.3422  0.4081 -0.4235
  761THF     H412884   3.548   1.449   3.554  0.7485  1.4199  0.9627
  761THF     H512885   3.609   1.390   3.399 -0.8358  0.2944 -0.0832
  761THF     H612886   3.734   1.446   3.751 -1.0426 -0.1847 -1.2855
  761THF     H712887   3.892   1.416   3.687 -0.0680 -0.2735  0.2535
  761THF     C812888   3.796   1.584   3.591  0.5316 -0.4950 -0.4465
  761THF     C912889   3.703   1.569   3.480  0.8391 -0.0648  0.5175
  761THF    H1012890   3.891   1.616   3.547 -0.1804  1.8508 -0.4058
  761THF    H1112891   3.771   1.655   3.669  1.1334  0.4136 -1.0706
  761THF    H1212892   3.626   1.647   3.475  0.2665 -0.5456  1.4128
  761THF    H1312893   3.757   1.580   3.386  1.2220  1.5256  0.8863
  762THF     O112894   3.565   0.039   4.891 -0.3092 -0.1233 -0.0206
  762THF     C212895   3.697   0.002   4.849 -0.7897 -0.8045  0.1822
  762THF     C312896   3.503  -0.078   4.921  0.6157  0.1779 -0.4056
  762THF     H412897   3.769  -0.027   4.926  0.1729 -0.2006 -0.4735
  762THF     H512898   3.746   0.077   4.787 -0.0924 -0.9443  0.5494
  762THF     H612899   3.525  -0.103   5.025 -1.0109 -1.1574 -0.3392
  762THF     H712900   3.395  -0.072   4.931  0.4931  0.9260 -1.9552
  762THF     C812901   3.551  -0.181   4.814 -0.0431 -0.0066  0.1111
  762THF     C912902   3.672  -0.111   4.752 -0.7983  0.2664 -0.0369
  762THF    H1012903   3.480  -0.197   4.733  0.2527  1.5536 -0.4779
  762THF    H1112904   3.565  -0.281   4.857 -0.9578  0.2631  1.0600
  762THF    H1212905   3.758  -0.178   4.761 -2.2602 -1.6800  0.2779
  762THF    H1312906   3.643  -0.078   4.653 -1.8996  0.0687  0.2009
  763THF     O112907   2.532   3.953   3.305  0.6535 -0.1523 -0.3322
  763THF     C212908   2.475   4.007   3.419  0.9695 -0.5262  0.2335
  763THF     C312909   2.599   3.828   3.341  0.0396 -0.3113  0.0730
  763THF     H412910   2.367   4.000   3.403  0.6621 -1.2368  2.2778
  763THF     H512911   2.504   4.112   3.428  1.1485 -0.7074  2.6047
  763THF     H612912   2.585   3.754   3.262  1.0381 -0.8234  0.3659
  763THF     H712913   2.707   3.841   3.341  0.2072 -1.5291  1.3673
  763THF     C812914   2.537   3.785   3.467  0.1706 -0.2619 -0.7824
  763THF     C912915   2.496   3.913   3.532 -0.0220 -0.2821  0.0652
  763THF    H1012916   2.610   3.731   3.527 -0.9824 -1.1659 -0.1655
  763THF    H1112917   2.451   3.721   3.448  1.1740 -1.8676 -0.0865
  763THF    H1212918   2.411   3.893   3.597 -0.7086 -0.1856 -0.7879
  763THF    H1312919   2.580   3.943   3.595 -0.3777  2.5461 -0.6486
  764THF     O112920   1.251   0.270   4.210  0.2739  0.3587 -0.0504
  764THF     C212921   1.220   0.402   4.254 -0.0908 -0.5436 -0.2296
  764THF     C312922   1.172   0.172   4.281 -0.5187  0.1785  0.5619
  764THF     H412923   1.135   0.441   4.197 -0.7828 -1.1161  0.3993
  764THF     H512924   1.302   0.469   4.229  0.2496 -0.0672  1.9683
  764THF     H612925   1.112   0.105   4.220 -0.1198  1.3689 -1.2379
  764THF     H712926   1.236   0.111   4.344  1.9151  1.5289 -0.4696
  764THF     C812927   1.082   0.254   4.380  0.5122  0.2662 -0.6218
  764THF     C912928   1.171   0.385   4.397  0.7000  0.3652  0.2280
  764THF    H1012929   1.044   0.200   4.467  1.1703 -0.0941 -0.5558
  764THF    H1112930   0.990   0.290   4.333 -1.6733  0.3731  3.3097
  764THF    H1212931   1.113   0.468   4.439  2.0061  0.9642  0.9220
  764THF    H1312932   1.256   0.363   4.461  0.3368  3.4452  2.0016
  765THF     O112933   1.245   0.690   4.386 -0.1027 -0.3763 -0.3809
  765THF     C212934   1.215   0.746   4.513 -0.0058  0.6622 -0.2872
  765THF     C312935   1.172   0.769   4.299 -0.0853  0.0626 -0.2092
  765THF     H412936   1.269   0.839   4.529  1.4288 -0.5055  2.2166
  765THF     H512937   1.257   0.685   4.592  2.6220 -0.2380 -2.2224
  765THF     H612938   1.216   0.867   4.278 -1.8546  1.1185  0.7754
  765THF     H712939   1.173   0.732   4.196 -0.3142  2.9423 -1.3657
  765THF     C812940   1.027   0.781   4.361 -0.2720  0.6794 -0.1157
  765THF     C912941   1.062   0.766   4.507  0.2698  0.6686  0.0582
  765THF    H1012942   0.972   0.691   4.330  2.3508  0.1177 -3.9372
  765THF    H1112943   0.982   0.878   4.344 -2.0706 -0.2223 -0.8147
  765THF    H1212944   1.023   0.855   4.556 -2.8736 -0.1644 -0.7149
  765THF    H1312945   1.012   0.686   4.562  0.6819  0.6469  0.4096
  766THF     O112946   3.191   1.332   1.748 -0.0430 -0.5516 -0.8198
  766THF     C212947   3.124   1.390   1.639  0.1300 -0.3689  0.2792
  766THF     C312948   3.308   1.410   1.761  0.0240  0.3734 -0.0905
  766THF     H412949   3.020   1.358   1.626  0.6682 -1.6348 -1.4102
  766THF     H512950   3.181   1.368   1.548 -0.6300 -2.0925  0.1693
  766THF     H612951   3.355   1.389   1.857 -0.6927  1.7112  0.5824
  766THF     H712952   3.380   1.390   1.682 -0.2592 -0.7421 -0.0841
  766THF     C812953   3.256   1.551   1.749  0.1798 -0.0699 -0.7792
  766THF     C912954   3.133   1.540   1.661  0.4341 -0.4319  0.8675
  766THF    H1012955   3.332   1.611   1.700  1.5495 -1.4569 -0.4526
  766THF    H1112956   3.217   1.597   1.840 -0.3460  0.8027 -1.4302
  766THF    H1212957   3.045   1.588   1.705 -0.5862 -0.9815 -0.4999
  766THF    H1312958   3.165   1.584   1.566  0.9051 -1.7181  0.4115
  767THF     O112959   3.448   1.450   3.221  0.0346  0.4673 -0.3266
  767THF     C212960   3.388   1.479   3.099  0.4262  0.3213 -0.0751
  767THF     C312961   3.352   1.495   3.324  0.0445  0.2232  0.9690
  767THF     H412962   3.424   1.406   3.028  2.6902 -1.0468  2.2804
  767THF     H512963   3.426   1.581   3.085 -1.2975  1.2555  1.4970
  767THF     H612964   3.342   1.420   3.403  0.6209 -0.2810  0.5740
  767THF     H712965   3.378   1.578   3.388  0.5627 -0.5448  1.7736
  767THF     C812966   3.222   1.527   3.249  0.2796 -0.1162  0.2632
  767THF     C912967   3.238   1.476   3.117 -0.2220  0.6069 -0.2884
  767THF    H1012968   3.191   1.631   3.243 -0.3590 -0.3222 -0.2164
  767THF    H1112969   3.138   1.474   3.294  0.5864 -0.0446  0.9284
  767THF    H1212970   3.191   1.378   3.106 -1.5642  1.3250 -1.2485
  767THF    H1312971   3.179   1.541   3.052 -3.2631 -0.3993  1.2270
  768THF     O112972   0.457   2.400   0.129  0.4499  0.1112 -0.1072
  768THF     C212973   0.558   2.463   0.062  0.3172 -0.3320 -0.3276
  768THF     C312974   0.424   2.283   0.049  0.2626 -0.6419  0.1060
  768THF     H412975   0.616   2.537   0.117 -1.0811  0.0123  0.7472
  768THF     H512976   0.514   2.511  -0.025 -0.4063 -2.9768 -1.5391
  768THF     H612977   0.391   2.199   0.110  1.9324 -0.7846  0.8645
  768THF     H712978   0.342   2.318  -0.014  0.3325 -0.6041  0.0368
  768THF     C812979   0.557   2.240  -0.016 -0.1966 -0.0534 -0.2947
  768THF     C912980   0.654   2.351   0.014 -0.0569  0.5060  0.4208
  768THF    H1012981   0.542   2.218  -0.121  2.4787  0.0951 -0.7857
  768THF    H1112982   0.591   2.145   0.026 -0.9852 -1.3443 -2.4355
  768THF    H1212983   0.717   2.327   0.099  1.5820 -1.5209 -1.2612
  768THF    H1312984   0.727   2.363  -0.066  0.4878  0.7542  0.9392
  769THF     O112985   4.452   3.070   3.705  0.0676  0.7542  0.4871
  769THF     C212986   4.331   3.049   3.638 -0.0734 -0.4127  0.2251
  769THF     C312987   4.518   3.170   3.632 -0.8084 -1.0143 -0.3914
  769THF     H412988   4.255   3.122   3.668 -0.2934  0.9687 -3.2880
  769THF     H512989   4.287   2.951   3.657 -3.0060 -0.1371 -3.9487
  769THF     H612990   4.460   3.258   3.659 -0.7440 -0.7390 -1.1137
  769THF     H712991   4.619   3.199   3.662 -1.3637 -1.2425  1.8303
  769THF     C812992   4.503   3.121   3.488 -0.4856 -0.2133 -0.1538
  769THF     C912993   4.369   3.047   3.491 -0.1284 -0.1636 -0.0288
  769THF    H1012994   4.576   3.042   3.469 -0.4690 -0.7423  1.8482
  769THF    H1112995   4.521   3.196   3.411  0.8046 -2.2062 -1.9147
  769THF    H1212996   4.294   3.092   3.427  0.1694  2.0456  1.0620
  769THF    H1312997   4.378   2.943   3.460 -2.2464 -0.0962 -0.9972
  770THF     O112998   3.072   2.825   4.615  0.1875 -0.2705  0.5480
  770THF     C212999   3.184   2.742   4.642 -0.0943  0.4235  0.6068
  770THF     C313000   3.030   2.815   4.476 -0.8304  0.8524 -0.0870
  770THF     H413001   3.178   2.695   4.740 -0.0948 -1.3413 -0.1978
  770THF     H513002   3.283   2.788   4.635 -0.7243  1.7087 -0.0726
  770THF     H613003   2.929   2.774   4.482 -0.5269  0.2114  0.9380
  770THF     H713004   3.039   2.906   4.417  0.3075  0.8738  0.0931
  770THF     C813005   3.133   2.709   4.425 -0.0553 -0.2691  0.8895
  770THF     C913006   3.173   2.633   4.545  0.0962  0.1989 -0.0943
  770THF    H1013007   3.225   2.741   4.376 -0.1254 -1.2761  0.0393
  770THF    H1113008   3.091   2.634   4.357 -0.6512 -0.5272  1.5307
  770THF    H1213009   3.108   2.554   4.582  0.6205 -0.7686 -1.1819
  770THF    H1313010   3.274   2.595   4.529 -0.2457  0.0291 -2.0936
  771THF     O113011   0.957   3.667   5.460  0.5974  0.1744 -0.0398
  771THF     C213012   0.901   3.549   5.400  0.5091 -0.7484  0.2870
  771THF     C313013   0.943   3.654   5.607 -0.0855  0.6469  1.1733
  771THF     H413014   0.973   3.498   5.336  0.2854  1.0456 -1.5054
  771THF     H513015   0.829   3.583   5.325 -0.8403  0.7848  2.1718
  771THF     H613016   1.038   3.612   5.641 -1.2439 -2.9160  0.4703
  771THF     H713017   0.916   3.748   5.655  1.4713  0.7969  1.8208
  771THF     C813018   0.837   3.548   5.632  0.3835 -0.2931 -0.8042
  771THF     C913019   0.849   3.461   5.511 -0.2482  0.7764 -0.7797
  771THF    H1013020   0.737   3.591   5.635 -0.2358 -1.2258 -4.0912
  771THF    H1113021   0.859   3.485   5.718 -1.1320 -0.6999 -0.6897
  771THF    H1213022   0.922   3.382   5.529 -0.4186  1.1773  2.0319
  771THF    H1313023   0.755   3.411   5.490  2.0450 -5.0626  0.8650
  772THF     O113024   0.105   3.013   4.402 -0.1174  0.4530  0.2506
  772THF     C213025   0.061   3.101   4.503  0.0828 -0.4193 -0.0378
  772THF     C313026   0.114   2.884   4.455  0.1204  0.4766 -0.3826
  772THF     H413027   0.001   3.182   4.461  0.5881 -0.4786 -0.8996
  772THF     H513028   0.150   3.142   4.550  1.1304 -0.5624 -1.7983
  772THF     H613029   0.106   2.799   4.388 -0.5265 -0.4186  0.7834
  772THF     H713030   0.208   2.868   4.508 -0.0281  1.4411  0.1947
  772THF     C813031  -0.004   2.878   4.551 -0.4362  0.2910 -0.3322
  772THF     C913032  -0.005   3.018   4.608  0.6166 -0.1257  0.1207
  772THF    H1013033   0.021   2.797   4.619 -1.1456 -0.7097 -1.2250
  772THF    H1113034  -0.104   2.870   4.507 -2.0494  2.4118  2.5443
  772THF    H1213035  -0.103   3.062   4.628  1.2169  1.6483 -0.6726
  772THF    H1313036   0.058   3.013   4.697  2.1205 -0.2239 -0.9106
  773THF     O113037   4.068   1.826   5.325  0.1945  0.2945 -0.2954
  773THF     C213038   4.127   1.768   5.208  0.4820 -0.1430 -0.9237
  773THF     C313039   4.011   1.955   5.306  0.1689 -0.5874 -0.2536
  773THF     H413040   4.162   1.665   5.222  1.7446  0.4290  0.5808
  773THF     H513041   4.214   1.822   5.170 -1.0224  0.9182 -3.0368
  773THF     H613042   3.934   1.973   5.382  2.1020  0.1839  1.6407
  773THF     H713043   4.085   2.034   5.321  1.4498 -1.6295 -0.8593
  773THF     C813044   3.967   1.938   5.157 -0.0579 -0.0346  0.1463
  773THF     C913045   4.011   1.808   5.107 -0.4284 -0.4521  0.0531
  773THF    H1013046   4.024   2.019   5.113  0.5791 -0.8601 -0.5689
  773THF    H1113047   3.859   1.939   5.143 -0.0848 -3.5560 -0.8351
  773THF    H1213048   3.932   1.733   5.108 -0.2388 -0.6842 -1.4271
  773THF    H1313049   4.047   1.826   5.006  0.2773 -0.5211  0.2833
  774THF     O113050   5.400   2.371   0.119 -0.1957  0.0206 -0.5102
  774THF     C213051   5.406   2.454   0.237 -0.3237 -0.1704  0.1456
  774THF     C313052   5.465   2.249   0.141 -0.6660 -0.5911 -0.3919
  774THF     H413053   5.310   2.455   0.289 -0.4997 -0.2146 -0.1783
  774THF     H513054   5.412   2.559   0.208  0.7568 -0.7732 -2.0356
  774THF     H613055   5.396   2.193   0.204  0.8986 -0.7649  1.2846
  774THF     H713056   5.503   2.187   0.061  1.4825 -0.9393  0.8057
  774THF     C813057   5.573   2.285   0.245  0.1462  0.1568  1.2132
  774THF     C913058   5.508   2.394   0.322  0.0469 -0.1757  0.1767
  774THF    H1013059   5.648   2.324   0.176 -2.0416  0.8372 -0.9291
  774THF    H1113060   5.601   2.201   0.309  0.1453  0.0289  1.0477
  774THF    H1213061   5.454   2.354   0.408 -4.5372  2.6923 -0.9811
  774THF    H1313062   5.570   2.474   0.363 -1.8874  0.2560  2.5191
  775THF     O113063   2.067   2.497   2.764  0.6563  0.1184  0.3164
  775THF     C213064   2.205   2.481   2.727 -0.9826  0.2257 -0.4163
  775THF     C313065   2.019   2.626   2.745  0.2815 -0.3882  0.0401
  775THF     H413066   2.222   2.403   2.654  3.0264 -1.6772  2.1645
  775THF     H513067   2.255   2.449   2.819 -0.7516  0.4035 -0.4798
  775THF     H613068   1.917   2.632   2.705  0.6736  0.6010 -0.8842
  775THF     H713069   2.022   2.669   2.845  1.6054 -1.8697  0.6767
  775THF     C813070   2.113   2.673   2.635 -0.1350 -0.1136  0.8612
  775THF     C913071   2.246   2.615   2.681 -0.2185 -0.3776 -0.1929
  775THF    H1013072   2.119   2.779   2.612  1.1159 -0.2405  0.5157
  775THF    H1113073   2.090   2.625   2.540  2.2383  1.2452 -0.4935
  775THF    H1213074   2.330   2.618   2.612 -0.4696 -1.0862 -0.5485
  775THF    H1313075   2.267   2.678   2.767 -0.8957  0.0833 -0.3564
  776THF     O113076   3.380   1.819   1.181 -0.4199 -0.0684  0.0674
  776THF     C213077   3.318   1.734   1.087 -0.0221  0.9426 -0.4274
  776THF     C313078   3.515   1.843   1.137 -0.5295 -0.1935  0.6364
  776THF     H413079   3.250   1.791   1.024 -1.3928 -0.3406 -0.1766
  776THF     H513080   3.263   1.654   1.138  1.6754 -0.5805 -0.8759
  776THF     H613081   3.523   1.951   1.144  1.0531 -0.2010 -0.5159
  776THF     H713082   3.585   1.801   1.208 -1.7748 -1.0651  1.3962
  776THF     C813083   3.528   1.796   0.994  0.1945  0.5889 -0.1994
  776THF     C913084   3.430   1.682   0.994 -0.1973  0.2278  0.1143
  776THF    H1013085   3.630   1.780   0.958  0.2650  1.7379 -0.5565
  776THF    H1113086   3.488   1.869   0.924  0.5811  1.0995  0.1018
  776THF    H1213087   3.388   1.667   0.894  2.3686 -0.0436 -0.9836
  776THF    H1313088   3.470   1.584   1.019 -0.0565  0.2576  0.0083
  777THF     O113089   2.755   1.520   1.271  0.0764  0.5008  0.1173
  777THF     C213090   2.889   1.540   1.221 -0.4022  0.0955  0.2925
  777THF     C313091   2.751   1.542   1.407 -0.4216  0.0492 -0.1251
  777THF     H413092   2.885   1.618   1.145 -0.7891 -1.5883 -1.4910
  777THF     H513093   2.943   1.462   1.167 -1.0277 -0.8169  0.9559
  777THF     H613094   2.655   1.580   1.439 -0.0959  2.4488 -1.7230
  777THF     H713095   2.781   1.443   1.443  0.9325 -0.5886 -2.7270
  777THF     C813096   2.868   1.632   1.436  0.4716  0.2620 -0.0370
  777THF     C913097   2.978   1.590   1.339  0.5744 -0.0893  0.1958
  777THF    H1013098   2.879   1.620   1.544  0.8576 -2.6241 -0.3232
  777THF    H1113099   2.849   1.739   1.431 -2.1358 -0.1436 -0.0254
  777THF    H1213100   3.040   1.675   1.311 -0.3210  0.5340  0.0366
  777THF    H1313101   3.038   1.510   1.382 -0.2015 -0.6540  0.2466
  778THF     O113102   0.233   4.427   2.442  0.3981  0.3052  0.3428
  778THF     C213103   0.164   4.558   2.456  0.4392  0.6607  0.0430
  778THF     C313104   0.139   4.323   2.470  0.3724  0.1965  0.1865
  778THF     H413105   0.146   4.600   2.357 -1.9807 -0.5701 -0.1160
  778THF     H513106   0.223   4.629   2.513  0.1104  0.2287  0.9358
  778THF     H613107   0.147   4.241   2.399 -1.6931  0.2687 -0.1908
  778THF     H713108   0.160   4.293   2.573  1.3041 -0.4161 -0.1700
  778THF     C813109   0.002   4.373   2.451  0.7768 -0.0084  0.1126
  778THF     C913110   0.027   4.515   2.512  0.2246  0.4755 -0.3899
  778THF    H1013111  -0.066   4.315   2.514  0.4827 -1.3240 -1.3300
  778THF    H1113112  -0.030   4.388   2.348  1.2157 -0.9157 -0.1704
  778THF    H1213113  -0.050   4.592   2.503  0.1567  0.6540  1.3872
  778THF    H1313114   0.032   4.493   2.619  0.0199  0.0482 -0.4671
  779THF     O113115   5.199   0.974   4.585  0.1945 -0.1979 -0.3033
  779THF     C213116   5.111   0.963   4.469  0.1761 -0.8603 -0.4590
  779THF     C313117   5.135   1.042   4.691 -0.3152  0.1939 -0.5860
  779THF     H413118   5.118   0.859   4.437  2.3625 -1.1313  0.6853
  779THF     H513119   5.142   1.032   4.391  2.7770 -1.5929 -0.1810
  779THF     H613120   5.180   1.016   4.787 -0.1416 -1.9714 -1.1971
  779THF     H713121   5.133   1.149   4.669 -0.2005 -0.0325 -1.8020
  779THF     C813122   4.996   0.989   4.674  0.0602 -0.1634  0.5749
  779THF     C913123   4.969   1.000   4.528 -0.4281  0.2524  0.2264
  779THF    H1013124   4.928   1.037   4.745  1.5957  3.1798  0.0149
  779THF    H1113125   4.999   0.882   4.694  0.9717 -0.2238  0.1978
  779THF    H1213126   4.893   0.930   4.492 -2.0358  1.7048  0.6939
  779THF    H1313127   4.936   1.101   4.504 -0.0550  0.8149  1.9270
  780THF     O113128   4.733   2.169   5.257  0.1055 -0.1642 -0.4158
  780THF     C213129   4.661   2.078   5.169  0.0097  0.7451 -0.0992
  780THF     C313130   4.707   2.294   5.209  0.1452 -0.0516  0.0091
  780THF     H413131   4.554   2.064   5.188  0.4126 -1.6790  0.8585
  780THF     H513132   4.696   1.975   5.179  1.5671  1.2279 -0.3990
  780THF     H613133   4.607   2.321   5.242  0.7740  1.3454  0.8582
  780THF     H713134   4.777   2.374   5.233 -0.7167  0.9887 -0.8590
  780THF     C813135   4.701   2.271   5.063 -0.1089  0.6415 -0.1611
  780THF     C913136   4.695   2.120   5.027  0.3529  0.5509 -0.2371
  780THF    H1013137   4.790   2.315   5.018 -0.2076 -0.5862 -1.6540
  780THF    H1113138   4.618   2.321   5.013  0.4925  1.3063 -0.5145
  780THF    H1213139   4.619   2.105   4.950 -0.0079 -0.2583  0.2601
  780THF    H1313140   4.791   2.086   4.989 -0.3189  0.0884 -1.5678
  781THF     O113141   2.284   0.277   4.757  0.0056  0.3263 -0.8482
  781THF     C213142   2.427   0.297   4.725  0.9329 -0.4910 -0.5905
  781THF     C313143   2.267   0.228   4.887  0.1303  0.1173 -0.0752
  781THF     H413144   2.433   0.384   4.659 -0.2057  2.2391  2.5722
  781THF     H513145   2.462   0.199   4.696 -2.8657 -1.5745 -2.0905
  781THF     H613146   2.197   0.278   4.953 -0.4078 -1.4808  0.6342
  781THF     H713147   2.244   0.121   4.888 -1.6093  0.4584  1.8405
  781THF     C813148   2.402   0.243   4.954 -0.8245  0.5978  0.1243
  781THF     C913149   2.489   0.330   4.862 -0.3725 -0.9650  0.9710
  781THF    H1013150   2.449   0.146   4.944  2.5311  2.1395 -0.6791
  781THF    H1113151   2.416   0.272   5.058 -0.3360 -0.8972  0.4905
  781THF    H1213152   2.482   0.434   4.893  0.1618 -0.8745  0.8081
  781THF    H1313153   2.593   0.296   4.861 -0.7147 -2.0482  0.3044
  782THF     O113154   0.126   4.708   3.292 -0.7210 -0.3587 -0.6601
  782THF     C213155   0.227   4.788   3.349  0.0572 -0.0560  0.7751
  782THF     C313156   0.053   4.789   3.202 -0.4923 -0.2496  0.3836
  782THF     H413157   0.306   4.727   3.391  0.7037  0.5571  0.4676
  782THF     H513158   0.193   4.853   3.429  0.9160 -0.9374  1.8723
  782THF     H613159  -0.010   4.720   3.146 -1.3494  1.0893 -0.3542
  782THF     H713160   0.007   4.878   3.245  1.5718  1.0946 -0.0488
  782THF     C813161   0.171   4.834   3.115 -0.3986  0.9982 -0.4992
  782THF     C913162   0.276   4.863   3.227 -0.1625 -0.1043  0.3620
  782THF    H1013163   0.150   4.920   3.052 -1.9318  2.6110  2.0205
  782THF    H1113164   0.197   4.750   3.051  0.5437  0.5727  0.4047
  782THF    H1213165   0.369   4.820   3.191 -0.2673 -0.6667  0.7486
  782THF    H1313166   0.285   4.969   3.250  1.4072 -0.1879  0.2202
  783THF     O113167   2.891   0.216   4.326 -0.1420 -0.2224 -0.1179
  783THF     C213168   2.800   0.326   4.307  0.1682  0.4619  0.3054
  783THF     C313169   2.872   0.133   4.209 -0.4718  0.4871  0.0612
  783THF     H413170   2.838   0.415   4.357 -2.6408  1.6146  0.5252
  783THF     H513171   2.707   0.297   4.355  0.6920 -0.8940  0.5522
  783THF     H613172   2.956   0.069   4.183 -0.3773  0.2699  0.8781
  783THF     H713173   2.784   0.072   4.228  0.4094 -1.1004 -0.7116
  783THF     C813174   2.848   0.220   4.090  0.2219 -0.0663  0.6547
  783THF     C913175   2.783   0.345   4.156 -0.7621  0.7973 -0.2407
  783THF    H1013176   2.780   0.171   4.021 -1.3024  3.0628 -0.2457
  783THF    H1113177   2.941   0.245   4.039  0.3475 -1.2045  0.2950
  783THF    H1213178   2.836   0.437   4.128  1.7755  0.1315  1.8997
  783THF    H1313179   2.682   0.345   4.116 -0.1484 -3.3595 -2.2722
  784THF     O113180   3.782   3.690   0.929  0.0552  0.4991 -0.3969
  784THF     C213181   3.873   3.631   1.022 -0.0657  0.1153 -0.3639
  784THF     C313182   3.856   3.740   0.821  0.8041 -0.0087 -0.6334
  784THF     H413183   3.900   3.527   1.002 -0.8885  0.1393 -1.7929
  784THF     H513184   3.820   3.623   1.117 -0.6703  0.0085 -0.7065
  784THF     H613185   3.860   3.651   0.760 -0.1053  0.1733 -0.9784
  784THF     H713186   3.814   3.807   0.746 -0.9093  0.0088  0.2912
  784THF     C813187   3.993   3.779   0.873 -0.3050  0.0617 -0.1468
  784THF     C913188   3.997   3.718   1.006  0.3005  0.4309 -0.4352
  784THF    H1013189   4.014   3.885   0.884 -0.8546  0.1891 -0.2971
  784THF    H1113190   4.071   3.737   0.810 -1.0996  0.5737 -1.4985
  784THF    H1213191   4.095   3.671   1.018  0.4306  0.5103 -1.1295
  784THF    H1313192   4.002   3.796   1.081  3.4760 -0.7503  0.7561
  785THF     O113193   1.443   3.503   2.504 -0.1037 -0.4259 -0.4029
  785THF     C213194   1.331   3.432   2.553  0.0743  0.1032  0.8536
  785THF     C313195   1.547   3.497   2.607 -0.5889 -1.1623  0.4116
  785THF     H413196   1.256   3.417   2.476 -0.1465 -0.2484  1.1346
  785THF     H513197   1.277   3.491   2.628 -1.1473  1.3533 -0.9277
  785THF     H613198   1.646   3.517   2.565 -1.2485  1.6015 -0.0190
  785THF     H713199   1.523   3.582   2.671  2.5228 -0.3729  0.7038
  785THF     C813200   1.532   3.352   2.664 -0.3433 -1.3455 -0.6136
  785THF     C913201   1.396   3.308   2.616  0.0994  0.5013 -0.8958
  785THF    H1013202   1.528   3.337   2.772 -0.6515  0.4853 -0.3501
  785THF    H1113203   1.614   3.299   2.615  0.7169  0.0333 -0.3784
  785THF    H1213204   1.394   3.224   2.546 -0.7156 -1.9571  1.8548
  785THF    H1313205   1.341   3.276   2.705  0.0506  2.0544 -0.3447
  786THF     O113206   3.280   3.193   4.841  0.4929 -0.5744 -0.1260
  786THF     C213207   3.290   3.309   4.755  0.1515 -0.3067 -0.0535
  786THF     C313208   3.251   3.073   4.760  0.4021  0.0740  0.4202
  786THF     H413209   3.373   3.314   4.684  0.4529  1.4786  0.3635
  786THF     H513210   3.272   3.398   4.816  2.1465 -1.5661  2.5875
  786THF     H613211   3.330   3.034   4.697 -0.6000  1.2935 -1.7043
  786THF     H713212   3.212   2.990   4.820 -0.9416  2.4155  3.0498
  786THF     C813213   3.172   3.133   4.653  0.4732 -0.2254  0.6580
  786THF     C913214   3.166   3.283   4.673 -0.4247  0.4158  0.4982
  786THF    H1013215   3.066   3.107   4.645 -0.4063  3.1196 -0.2082
  786THF    H1113216   3.217   3.111   4.556 -0.5400  0.9079 -0.1039
  786THF    H1213217   3.182   3.336   4.579 -0.8554  0.8803  0.6788
  786THF    H1313218   3.072   3.318   4.715 -0.2102  0.1988  1.1737
  787THF     O113219   2.500   4.731   3.473  0.1035 -0.6091  0.5133
  787THF     C213220   2.634   4.686   3.477 -0.1948  0.6555  0.3975
  787THF     C313221   2.509   4.875   3.469 -0.7132  0.0009 -0.0175
  787THF     H413222   2.680   4.679   3.378 -3.3956 -0.8603 -1.1299
  787THF     H513223   2.650   4.583   3.509  1.3444  0.7893  0.1674
  787THF     H613224   2.539   4.910   3.370 -0.5339 -0.8000 -0.2568
  787THF     H713225   2.417   4.934   3.477  1.0140  2.9617 -0.5661
  787THF     C813226   2.608   4.915   3.581 -0.3269 -0.3397  0.1294
  787THF     C913227   2.707   4.795   3.563 -0.2435  0.1599  0.5424
  787THF    H1013228   2.573   4.897   3.682 -0.9198  0.2171  0.0269
  787THF    H1113229   2.662   5.008   3.565 -0.6325  0.1241  1.7216
  787THF    H1213230   2.802   4.831   3.522  0.0626 -1.2824 -0.0486
  787THF    H1313231   2.726   4.754   3.662  1.0546  1.1218  0.7314
  788THF     O113232   4.070   3.990   0.332 -0.2917  0.2483 -1.0349
  788THF     C213233   4.017   3.853   0.338 -0.0727 -0.3238 -0.0841
  788THF     C313234   4.117   4.018   0.462 -0.6822 -0.7583  1.0750
  788THF     H413235   4.019   3.801   0.242  0.3242  3.2859 -2.2147
  788THF     H513236   3.914   3.858   0.373 -0.4406  0.6864 -1.2695
  788THF     H613237   4.204   4.084   0.457 -1.2285 -0.0849 -0.5873
  788THF     H713238   4.038   4.066   0.519  0.1745  1.4471  0.5127
  788THF     C813239   4.170   3.892   0.520  0.2589 -0.3430  0.1942
  788THF     C913240   4.112   3.780   0.425  0.2144 -1.0707  0.3797
  788THF    H1013241   4.118   3.871   0.613 -1.9200  0.8190 -0.6937
  788THF    H1113242   4.278   3.875   0.517 -0.1650 -3.7276 -0.9098
  788THF    H1213243   4.185   3.731   0.361  0.9980  1.5287 -0.8556
  788THF    H1313244   4.055   3.707   0.483  0.9244 -0.9293  1.2978
  789THF     O113245   2.343   2.984   2.112  0.3482  0.6297  0.0265
  789THF     C213246   2.233   2.973   2.199 -0.0851  0.0125 -0.2870
  789THF     C313247   2.343   2.878   2.015  0.7074  0.2456 -0.4616
  789THF     H413248   2.194   3.070   2.230  0.0096 -0.7094  2.3864
  789THF     H513249   2.285   2.925   2.282 -0.0740 -1.5234 -1.1342
  789THF     H613250   2.313   2.937   1.928 -1.0105  1.2964  0.7813
  789THF     H713251   2.438   2.825   2.009  0.6181 -0.0204  0.3876
  789THF     C813252   2.235   2.779   2.063 -0.0909  0.0188 -0.1807
  789THF     C913253   2.142   2.867   2.140  0.2621  0.1226  0.2158
  789THF    H1013254   2.284   2.706   2.128 -0.8742 -0.1627  0.2181
  789THF    H1113255   2.190   2.727   1.979  0.5796 -1.6201  0.4333
  789THF    H1213256   2.076   2.921   2.071 -0.0960 -2.0664 -1.2622
  789THF    H1313257   2.094   2.808   2.218 -0.0604 -0.5626 -0.4878
  790THF     O113258   3.920   4.299   0.070  0.0421  0.0295 -0.2491
  790THF     C213259   3.822   4.205   0.023 -0.2310  0.5369 -0.4809
  790THF     C313260   4.054   4.249   0.033  0.5259  0.5753  0.2965
  790THF     H413261   3.824   4.216  -0.086  2.9638 -0.5782 -0.6247
  790THF     H513262   3.722   4.227   0.061 -0.1694 -1.4958  0.9566
  790THF     H613263   4.081   4.283  -0.068 -2.3808  1.5178 -0.2644
  790THF     H713264   4.125   4.279   0.110 -0.2989  0.8915  0.9442
  790THF     C813265   4.036   4.092   0.035 -0.4183  0.0998 -1.1827
  790THF     C913266   3.882   4.073   0.058  0.1175 -0.0284  1.0457
  790THF    H1013267   4.092   4.044   0.115  0.9556  2.6338 -0.5153
  790THF    H1113268   4.067   4.053  -0.062  0.0780 -2.3595 -0.1055
  790THF    H1213269   3.852   4.003  -0.019 -1.0081 -0.4145  1.8036
  790THF    H1313270   3.849   4.029   0.152  0.9976 -0.1512  1.3092
  791THF     O113271   3.891   4.234   2.605  0.5078  0.0281 -0.7446
  791THF     C213272   3.978   4.198   2.500  0.3017  0.0665 -0.2386
  791THF     C313273   3.801   4.122   2.627  0.1918  0.4382  0.2962
  791THF     H413274   4.068   4.157   2.547  0.8951  1.4217 -0.1441
  791THF     H513275   4.012   4.283   2.442 -0.4463 -1.3193 -2.8410
  791THF     H613276   3.807   4.082   2.728 -2.2959  0.8582  0.6804
  791THF     H713277   3.702   4.164   2.609 -0.1190 -0.9219 -1.4317
  791THF     C813278   3.832   4.015   2.525  0.0678 -0.1637  0.1739
  791THF     C913279   3.913   4.091   2.420  0.0387 -0.3569  0.3950
  791THF    H1013280   3.743   3.972   2.481 -0.3956  0.6400  0.3158
  791THF    H1113281   3.890   3.931   2.564 -2.5172 -2.2322 -0.1426
  791THF    H1213282   3.998   4.042   2.372  0.3999  1.6060 -1.0870
  791THF    H1313283   3.843   4.132   2.347 -1.6273 -2.4467  0.6877
  792THF     O113284   2.397   3.466   0.220 -0.4616 -0.7056 -0.1981
  792THF     C213285   2.431   3.374   0.111 -0.5956 -0.9046 -0.0963
  792THF     C313286   2.369   3.388   0.339  0.3336 -0.0670  0.3852
  792THF     H413287   2.532   3.364   0.071 -0.7494 -0.5527 -0.5817
  792THF     H513288   2.371   3.401   0.025  2.7126  4.5971 -1.1960
  792THF     H613289   2.463   3.361   0.386  2.0542  1.5081 -1.9054
  792THF     H713290   2.297   3.435   0.406  0.5244 -0.9653  1.2420
  792THF     C813291   2.304   3.260   0.285 -0.3717 -0.5467 -0.7799
  792THF     C913292   2.387   3.233   0.165 -0.9817 -0.0094  0.3400
  792THF    H1013293   2.201   3.290   0.268 -0.4685 -1.1373 -1.2911
  792THF    H1113294   2.310   3.184   0.364 -1.0108  0.8286  0.6393
  792THF    H1213295   2.474   3.177   0.199 -1.5740 -0.3454  1.3429
  792THF    H1313296   2.329   3.180   0.089  1.0282 -1.6459 -0.1343
  793THF     O113297   0.275   0.799   5.404 -0.6283 -0.1081 -0.0534
  793THF     C213298   0.239   0.685   5.486  0.0639  1.1538 -0.4264
  793THF     C313299   0.258   0.913   5.486  0.1067  0.8093 -0.3969
  793THF     H413300   0.330   0.664   5.542 -0.1411 -1.1269 -0.8636
  793THF     H513301   0.227   0.588   5.438  2.1404  1.1364 -1.0234
  793THF     H613302   0.357   0.942   5.520 -0.4996  1.2368  1.0663
  793THF     H713303   0.209   0.995   5.433 -1.7561  0.1392  0.2237
  793THF     C813304   0.167   0.877   5.610  0.3817  0.0051  0.5618
  793THF     C913305   0.123   0.731   5.577 -0.5036 -0.6468 -0.8503
  793THF    H1013306   0.090   0.950   5.636 -2.0127 -1.7425 -1.2028
  793THF    H1113307   0.224   0.882   5.703 -1.6947 -0.9487  1.9685
  793THF    H1213308   0.123   0.670   5.667 -0.5650  0.9156  0.2570
  793THF    H1313309   0.028   0.719   5.527 -2.5154  0.4331  2.3758
  794THF     O113310   0.700   4.566   3.402 -0.3758 -0.8479 -0.6115
  794THF     C213311   0.799   4.473   3.406  0.0535  0.8941  0.0579
  794THF     C313312   0.692   4.610   3.267 -0.0933  0.4054 -0.8557
  794THF     H413313   0.752   4.379   3.374 -0.6364  1.7691 -1.6324
  794THF     H513314   0.839   4.463   3.507 -0.5209  1.6526  0.3652
  794THF     H613315   0.630   4.541   3.210  0.7096 -0.3315 -0.8694
  794THF     H713316   0.651   4.711   3.261 -1.0435  0.0645 -0.3052
  794THF     C813317   0.840   4.621   3.218  0.4796  0.5422  0.0567
  794THF     C913318   0.905   4.517   3.304  0.2151 -0.2361  0.3838
  794THF    H1013319   0.885   4.714   3.252  2.2338  1.0823 -3.3732
  794THF    H1113320   0.868   4.603   3.114  1.1598 -0.6848  0.4349
  794THF    H1213321   0.939   4.431   3.246 -0.9206 -0.8684  0.6393
  794THF    H1313322   0.995   4.556   3.351  0.2353 -0.6606  0.7018
  795THF     O113323   4.721   0.520   4.454  0.2826  0.0887 -0.4121
  795THF     C213324   4.756   0.417   4.365 -0.1994  0.0875  0.2609
  795THF     C313325   4.814   0.627   4.436  0.8384 -0.2496 -0.7515
  795THF     H413326   4.691   0.424   4.278  0.5530  1.7726 -0.2148
  795THF     H513327   4.738   0.316   4.402 -1.0288  0.5776  1.2453
  795THF     H613328   4.777   0.690   4.354  3.0031 -1.0728 -2.4445
  795THF     H713329   4.821   0.681   4.531 -0.1939  0.1502 -0.8813
  795THF     C813330   4.949   0.576   4.383 -0.6958  0.8050 -0.5408
  795THF     C913331   4.904   0.449   4.323  0.4140  0.4637 -0.4377
  795THF    H1013332   5.012   0.552   4.469  1.1289  0.3972 -1.9113
  795THF    H1113333   4.994   0.633   4.301  0.4200 -1.4268 -1.5861
  795THF    H1213334   4.921   0.422   4.219 -1.6583  1.9311 -1.2388
  795THF    H1313335   4.956   0.371   4.378  0.1150  2.2796  2.6435
  796THF     O113336   2.187   4.698   5.393 -0.5958  0.0752  0.0179
  796THF     C213337   2.093   4.625   5.478  0.6466 -0.0726  0.9981
  796THF     C313338   2.258   4.597   5.325  0.1190  0.5060  0.3352
  796THF     H413339   2.006   4.681   5.512  0.2446  1.5008 -2.2290
  796THF     H513340   2.148   4.580   5.561  2.8341 -0.1491 -0.4195
  796THF     H613341   2.315   4.633   5.239 -0.8010 -0.9301 -0.9332
  796THF     H713342   2.343   4.559   5.380 -0.8643 -0.9364  0.9312
  796THF     C813343   2.161   4.485   5.300 -0.2072  0.8091  0.2756
  796THF     C913344   2.038   4.524   5.379  0.0917 -0.4019  0.8991
  796THF    H1013345   2.201   4.397   5.349 -0.7173  1.0976  1.2443
  796THF    H1113346   2.149   4.461   5.195  0.2837 -2.3566  0.8391
  796THF    H1213347   1.961   4.563   5.312  2.8292  0.9101 -1.6893
  796THF    H1313348   2.004   4.427   5.416  1.4363 -1.4136 -0.4182
  797THF     O113349   2.468   4.573   1.688  0.3281 -0.4524  0.0947
  797THF     C213350   2.604   4.622   1.674 -0.0768 -0.3348  0.2742
  797THF     C313351   2.404   4.601   1.567  0.0889  0.0337  0.4605
  797THF     H413352   2.651   4.553   1.604  1.1114  0.7971 -0.0843
  797THF     H513353   2.658   4.619   1.769 -0.1700  0.1430  0.3461
  797THF     H613354   2.424   4.529   1.488  0.2219 -0.7957  1.2276
  797THF     H713355   2.296   4.607   1.582  0.1535  0.2334  0.8723
  797THF     C813356   2.450   4.746   1.532 -0.4887 -0.0791 -0.0988
  797THF     C913357   2.585   4.753   1.609 -0.0163 -0.0600  0.1563
  797THF    H1013358   2.371   4.818   1.554 -0.2026  0.3577 -0.4905
  797THF    H1113359   2.465   4.753   1.424  0.0897 -0.3339 -0.0368
  797THF    H1213360   2.661   4.794   1.542 -1.0943  1.4925 -0.1684
  797THF    H1313361   2.572   4.826   1.689  1.2784  1.0830 -0.6186
  798THF     O113362   1.987   3.177   3.346 -0.0203  0.3830  0.6130
  798THF     C213363   1.900   3.066   3.346  0.6282  0.3552 -0.3156
  798THF     C313364   2.004   3.228   3.478  0.7966  0.6678  1.0902
  798THF     H413365   1.955   2.976   3.374  0.5136  1.3993  3.9101
  798THF     H513366   1.843   3.053   3.254  1.4556  0.5684 -0.8676
  798THF     H613367   2.093   3.177   3.513  1.8056  1.2805 -0.4679
  798THF     H713368   2.006   3.337   3.471  0.4708  0.6004 -0.7681
  798THF     C813369   1.885   3.173   3.555 -0.0218  0.3320 -0.0781
  798THF     C913370   1.793   3.104   3.450 -0.1076 -0.3667 -0.8100
  798THF    H1013371   1.837   3.246   3.620  1.0923  1.3177 -0.3331
  798THF    H1113372   1.929   3.102   3.625 -0.0444  0.7540  0.3662
  798THF    H1213373   1.746   3.016   3.495 -0.5486 -0.4341 -1.3880
  798THF    H1313374   1.725   3.177   3.406  0.4785  0.6012 -0.1430
  799THF     O113375   0.179   0.876   3.799 -0.5280 -0.4633 -0.4409
  799THF     C213376   0.063   0.861   3.717  0.2302  0.0899  0.1113
  799THF     C313377   0.210   1.012   3.817 -0.6385  0.0565 -0.8155
  799THF     H413378  -0.013   0.892   3.789  0.8978 -0.4737  1.0757
  799THF     H513379   0.055   0.762   3.672  0.6016  1.3821 -3.0653
  799THF     H613380   0.135   1.052   3.886 -0.4584 -1.8722  0.5922
  799THF     H713381   0.310   1.006   3.858 -0.2414  0.1271 -1.7480
  799THF     C813382   0.204   1.054   3.671 -0.5829 -0.0551  0.4893
  799THF     C913383   0.078   0.981   3.622 -0.5282  0.1604 -0.1004
  799THF    H1013384   0.290   1.015   3.616 -0.7645  1.5110 -1.0267
  799THF    H1113385   0.199   1.160   3.644 -2.4451 -0.0604  0.6426
  799THF    H1213386  -0.006   1.047   3.641  0.0407  0.3060  2.1796
  799THF    H1313387   0.074   0.932   3.524  0.5715 -2.5785  1.1277
  800THF     O113388   3.248   4.829   3.793 -0.4402  0.0574 -0.3916
  800THF     C213389   3.107   4.848   3.811  0.2316  0.1415 -0.1433
  800THF     C313390   3.286   4.696   3.773 -0.2159 -0.0459 -0.1103
  800THF     H413391   3.065   4.883   3.717  0.8142  1.4150  0.0506
  800THF     H513392   3.084   4.917   3.892  1.4374  0.5214 -0.1074
  800THF     H613393   3.264   4.676   3.668 -1.4305  2.9104 -0.5262
  800THF     H713394   3.388   4.667   3.795  0.2698  0.1274 -1.9839
  800THF     C813395   3.188   4.627   3.859  0.0523  0.3232 -0.2035
  800THF     C913396   3.059   4.709   3.836 -0.2994  0.7233 -0.4602
  800THF    H1013397   3.215   4.655   3.961  0.0587  0.6975 -0.3033
  800THF    H1113398   3.169   4.522   3.839  0.1453  0.0405  1.1446
  800THF    H1213399   2.997   4.669   3.755 -1.8228  1.4755  0.2800
  800THF    H1313400   2.998   4.707   3.926 -3.0030 -0.9483 -2.1900
  801THF     O113401   1.467   3.878   1.486  0.0316  0.7566  0.4520
  801THF     C213402   1.464   3.937   1.620  0.6785  0.1516  0.9123
  801THF     C313403   1.456   3.735   1.496  0.1918 -0.1794 -0.1478
  801THF     H413404   1.362   3.973   1.636  0.6719  2.9937 -3.8468
  801THF     H513405   1.526   4.025   1.606 -0.4946  0.9544  0.6870
  801THF     H613406   1.379   3.694   1.431  2.0132 -1.2683 -1.7197
  801THF     H713407   1.546   3.696   1.449  0.0770 -1.0562  0.3311
  801THF     C813408   1.455   3.700   1.643  0.5116 -0.6702  0.0620
  801THF     C913409   1.500   3.820   1.709 -0.3100  0.5380  0.3438
  801THF    H1013410   1.517   3.611   1.657 -0.4291 -1.3381  0.1480
  801THF    H1113411   1.348   3.688   1.664  0.4336 -1.5538 -0.7933
  801THF    H1213412   1.469   3.835   1.813 -0.4485  0.9968  0.2417
  801THF    H1313413   1.608   3.818   1.719 -0.1001  1.0493 -1.4954
  802THF     O113414   5.137   2.482   5.226  0.2097  0.1901 -0.5960
  802THF     C213415   5.113   2.464   5.090  0.9271  0.1898 -0.2716
  802THF     C313416   5.022   2.541   5.283 -0.2172  0.0123  0.1129
  802THF     H413417   5.047   2.380   5.071 -0.4375  1.0684  0.4191
  802THF     H513418   5.204   2.446   5.033  0.5784  0.8792 -1.0632
  802THF     H613419   4.943   2.471   5.308 -0.7397  1.2209  2.0920
  802THF     H713420   5.051   2.586   5.378  0.1967 -0.6264  0.2935
  802THF     C813421   4.968   2.638   5.183 -0.0082 -0.5969 -0.1739
  802THF     C913422   5.054   2.596   5.063 -0.3494  0.3517 -0.6432
  802THF    H1013423   4.975   2.744   5.208 -2.9997  0.1857 -2.1328
  802THF    H1113424   4.860   2.623   5.181  0.0655 -1.2112  0.1540
  802THF    H1213425   4.986   2.590   4.977 -0.3132  2.1559 -0.8459
  802THF    H1313426   5.140   2.657   5.036  0.6469 -0.6156  0.2809
  803THF     O113427   3.310   2.897   1.210 -0.1220 -0.7190  0.1645
  803THF     C213428   3.304   2.798   1.110 -0.5725 -0.0854 -0.1231
  803THF     C313429   3.264   2.835   1.333 -0.5385 -0.3518  0.0886
  803THF     H413430   3.360   2.823   1.020 -1.3141  0.1262 -0.5285
  803THF     H513431   3.197   2.787   1.092 -0.7609 -0.6239  1.2061
  803THF     H613432   3.286   2.880   1.430  0.6022 -2.3184  0.8061
  803THF     H713433   3.159   2.803   1.335 -0.1491 -1.7381  2.6032
  803THF     C813434   3.348   2.706   1.336  0.0693  1.2150  0.0118
  803THF     C913435   3.361   2.674   1.185 -0.7902 -0.2077  0.4226
  803THF    H1013436   3.310   2.620   1.389  1.0922  0.3253 -0.6453
  803THF    H1113437   3.443   2.730   1.385 -0.5040 -2.2204  3.2369
  803THF    H1213438   3.464   2.668   1.151 -0.2120  0.0135  2.0232
  803THF    H1313439   3.311   2.582   1.157  1.0414 -1.3400  0.6705
  804THF     O113440   1.256   2.427   3.652  0.4876 -0.0570  0.1825
  804THF     C213441   1.375   2.404   3.717 -0.4995 -0.1454  0.3258
  804THF     C313442   1.152   2.361   3.722  0.2061 -0.3042  0.1162
  804THF     H413443   1.411   2.495   3.764 -1.7556  0.4759  0.1295
  804THF     H513444   1.451   2.377   3.644 -0.1975  1.8211 -0.1272
  804THF     H613445   1.128   2.414   3.814  1.7961 -3.2929  2.4278
  804THF     H713446   1.066   2.341   3.659  0.5316  0.1203 -0.4736
  804THF     C813447   1.215   2.231   3.773 -0.3290 -0.2586 -0.5654
  804THF     C913448   1.349   2.290   3.818  0.0332  0.6513 -0.5474
  804THF    H1013449   1.232   2.159   3.693  2.7736  0.4493 -0.6740
  804THF    H1113450   1.158   2.185   3.854  0.7481  0.7158  0.8012
  804THF    H1213451   1.338   2.339   3.915 -1.5690 -0.8984  0.0933
  804THF    H1313452   1.434   2.223   3.815 -0.4514  0.0627 -1.4990
  805THF     O113453   1.557   3.966   2.036 -0.2361  0.1734 -0.6918
  805THF     C213454   1.688   3.997   2.084 -0.3399  0.8313  0.0832
  805THF     C313455   1.504   3.875   2.127  0.0173 -0.1466  0.5103
  805THF     H413456   1.687   4.098   2.125 -2.3146  1.1496 -0.6112
  805THF     H513457   1.763   3.996   2.005 -1.1967 -0.1258 -0.7545
  805THF     H613458   1.399   3.904   2.127  0.0122 -0.1015 -0.8900
  805THF     H713459   1.519   3.784   2.070  0.4228 -0.3568  0.9496
  805THF     C813460   1.588   3.880   2.260  0.1463  0.1305 -0.3067
  805THF     C913461   1.723   3.909   2.205 -0.3265  0.3109 -0.7539
  805THF    H1013462   1.579   3.778   2.299 -1.8115  0.0459 -0.9126
  805THF    H1113463   1.546   3.954   2.327 -2.2800 -2.2864  1.0332
  805THF    H1213464   1.780   3.965   2.279  0.9445 -3.6060  1.5182
  805THF    H1313465   1.780   3.820   2.180 -1.3481 -0.4470 -0.4317
  806THF     O113466   0.843   2.643   3.649 -0.3515  0.2639  0.1097
  806THF     C213467   0.840   2.619   3.793  0.4366 -0.4795 -0.4182
  806THF     C313468   0.898   2.773   3.634  0.7565  0.1687  0.5076
  806THF     H413469   0.944   2.607   3.823  2.2866  4.9531 -3.3319
  806THF     H513470   0.783   2.531   3.821 -1.0390  0.8855  1.0671
  806THF     H613471   1.000   2.759   3.668  0.9002 -0.1190 -0.0311
  806THF     H713472   0.884   2.801   3.530  2.9243 -2.3095 -0.5808
  806THF     C813473   0.824   2.852   3.739 -0.5467 -0.4063 -0.4449
  806THF     C913474   0.784   2.753   3.848  0.2386 -0.1943 -0.0513
  806THF    H1013475   0.732   2.900   3.708 -1.1424 -1.2759 -0.0618
  806THF    H1113476   0.892   2.927   3.781  0.2106 -1.2519 -0.1097
  806THF    H1213477   0.821   2.776   3.948  0.5333  0.0653 -0.2204
  806THF    H1313478   0.677   2.735   3.844  0.4813 -2.4585  1.6451
  807THF     O113479   3.991   4.381   4.695 -0.5672 -0.3878  0.0313
  807THF     C213480   4.112   4.312   4.706  0.3599 -0.5275  0.2346
  807THF     C313481   4.023   4.522   4.676  0.0246  0.3348 -0.5195
  807THF     H413482   4.134   4.247   4.621 -0.1429 -0.1496 -0.1973
  807THF     H513483   4.113   4.242   4.789 -1.4814 -0.9591 -0.0691
  807THF     H613484   4.036   4.526   4.568  0.0232 -1.2045 -0.5993
  807THF     H713485   3.933   4.569   4.715 -0.5200 -0.8426 -0.3218
  807THF     C813486   4.153   4.544   4.752  0.2656 -0.0764 -0.1527
  807THF     C913487   4.229   4.414   4.722 -0.1053  0.2093  0.0220
  807THF    H1013488   4.134   4.549   4.860 -0.3639 -1.3054 -0.1887
  807THF    H1113489   4.208   4.633   4.722 -0.2349 -0.3169 -1.8972
  807THF    H1213490   4.280   4.418   4.626  1.0718 -1.3786  0.5437
  807THF    H1313491   4.294   4.374   4.799 -0.7357 -3.3519 -1.1283
  808THF     O113492   3.393   2.400   4.105 -0.8205 -0.1580  0.1381
  808THF     C213493   3.322   2.446   4.218 -0.0148  0.2239 -0.0634
  808THF     C313494   3.442   2.269   4.136 -0.0200  0.4698 -0.0640
  808THF     H413495   3.252   2.524   4.185 -2.0311 -0.7190  1.7600
  808THF     H513496   3.393   2.491   4.288 -1.7296 -0.0089  1.9409
  808THF     H613497   3.421   2.195   4.058 -0.9354 -0.7160  1.2732
  808THF     H713498   3.551   2.271   4.145  0.1258 -1.3412 -1.0284
  808THF     C813499   3.373   2.223   4.271 -0.5097 -0.1071  0.8680
  808THF     C913500   3.257   2.316   4.275 -0.3250  0.4030 -0.1218
  808THF    H1013501   3.437   2.247   4.356 -0.3690  0.4667  0.6098
  808THF    H1113502   3.353   2.117   4.287  3.0136 -0.9896  0.3889
  808THF    H1213503   3.185   2.283   4.200 -0.2324 -4.5587  1.5677
  808THF    H1313504   3.207   2.334   4.370 -4.0801  0.1990 -1.8848
  809THF     O113505   1.066   0.255   0.603 -0.1142  0.4993  0.2506
  809THF     C213506   1.084   0.298   0.735 -0.3086 -0.0451 -0.1822
  809THF     C313507   1.064   0.116   0.601  0.0418  0.5468 -0.4656
  809THF     H413508   0.985   0.285   0.778 -1.1857 -0.2747 -2.1435
  809THF     H513509   1.099   0.404   0.756 -1.8872  0.2381 -0.3215
  809THF     H613510   0.973   0.066   0.635 -0.0139 -0.0055 -1.3740
  809THF     H713511   1.091   0.078   0.502 -0.4389  0.6786 -0.6553
  809THF     C813512   1.178   0.080   0.697 -0.7704  0.4245 -0.1053
  809THF     C913513   1.186   0.194   0.788 -0.1324  0.2787  0.5202
  809THF    H1013514   1.266   0.081   0.632 -1.3844  0.4322 -0.9480
  809THF    H1113515   1.179  -0.023   0.734  0.9661 -0.2520 -1.8578
  809THF    H1213516   1.147   0.177   0.888 -1.2455 -2.2927 -0.2642
  809THF    H1313517   1.289   0.229   0.798 -0.5524  1.0841  2.7932
  810THF     O113518   1.926   4.640   4.265 -0.0020  0.6743  0.4915
  810THF     C213519   1.948   4.627   4.130  0.4444  0.8067  0.1662
  810THF     C313520   1.934   4.778   4.295  0.4485  0.6325  0.0792
  810THF     H413521   1.919   4.529   4.095  1.6012  0.2814  0.6236
  810THF     H513522   2.053   4.639   4.104  1.6436 -1.6056  3.2845
  810THF     H613523   1.883   4.804   4.387 -3.5498 -0.2515 -1.6873
  810THF     H713524   2.041   4.798   4.300  0.2905  2.1383 -1.5627
  810THF     C813525   1.875   4.842   4.166  0.0495 -0.7049 -0.0819
  810THF     C913526   1.859   4.727   4.073  0.9222 -0.8134  0.6529
  810THF    H1013527   1.953   4.912   4.136  2.3695 -2.6036  1.1728
  810THF    H1113528   1.786   4.896   4.198 -0.0367 -1.0817  0.3223
  810THF    H1213529   1.753   4.701   4.080  0.2156  2.0626  1.8584
  810THF    H1313530   1.887   4.759   3.973  0.7849  0.6894  1.0784
  811THF     O113531   1.174   1.623   5.228  0.5599  0.5980 -0.0287
  811THF     C213532   1.076   1.725   5.258  0.2992  0.1053 -0.0135
  811THF     C313533   1.279   1.637   5.333  0.2860  0.3636  0.1529
  811THF     H413534   1.013   1.707   5.346  0.3839  1.5045  0.3509
  811THF     H513535   1.011   1.737   5.171  2.5836  0.4101 -1.7534
  811THF     H613536   1.261   1.600   5.434  1.4859  2.2881  1.1340
  811THF     H713537   1.364   1.578   5.297  0.0368 -1.3171  2.1186
  811THF     C813538   1.304   1.786   5.332 -0.3332 -0.0423  0.7520
  811THF     C913539   1.168   1.846   5.299 -0.5380  0.4776 -0.1435
  811THF    H1013540   1.367   1.814   5.247  0.9337 -1.0363  1.3284
  811THF    H1113541   1.358   1.820   5.421  0.5523  2.2892 -0.5698
  811THF    H1213542   1.135   1.900   5.388 -2.1059 -1.6372  0.6444
  811THF    H1313543   1.172   1.918   5.218  1.5778  0.7400  0.1354
  812THF     O113544   5.035   0.494   1.946  0.4568  0.0737 -0.0963
  812THF     C213545   5.097   0.401   2.042 -0.3902  0.2474 -0.8689
  812THF     C313546   4.916   0.436   1.893  0.2942  0.0280 -0.4065
  812THF     H413547   5.149   0.448   2.125 -0.6331 -0.5777 -0.2423
  812THF     H513548   5.168   0.336   1.990  1.5614  0.4495  1.3618
  812THF     H613549   4.850   0.521   1.879 -0.4705  0.0097  2.4651
  812THF     H713550   4.923   0.383   1.798 -1.5951 -1.1106  0.0233
  812THF     C813551   4.872   0.321   1.991 -0.5598 -0.0921  0.3646
  812THF     C913552   4.980   0.319   2.101  0.0462 -0.2095 -0.2408
  812THF    H1013553   4.877   0.225   1.940 -0.5609 -0.1626  0.4967
  812THF    H1113554   4.772   0.330   2.035 -0.8521  1.0945 -0.5015
  812THF    H1213555   4.951   0.372   2.192  2.3014  1.5422 -0.4450
  812THF    H1313556   5.006   0.220   2.139  2.9162  0.1964 -0.9697
  813THF     O113557   1.397   1.937   1.811 -0.0508  0.1314  0.0345
  813THF     C213558   1.382   1.799   1.786 -0.8578  0.1878 -0.0366
  813THF     C313559   1.461   1.954   1.940 -0.0164 -0.8111  0.8640
  813THF     H413560   1.479   1.766   1.750 -0.6074  0.8275  0.0353
  813THF     H513561   1.302   1.774   1.717 -0.1934  0.3057 -0.8725
  813THF     H613562   1.566   1.928   1.925 -0.7573 -3.3327 -0.6373
  813THF     H713563   1.463   2.053   1.985 -2.8660 -0.2991  0.0638
  813THF     C813564   1.399   1.849   2.020 -0.1475  1.2415  0.1161
  813THF     C913565   1.357   1.734   1.921 -0.4966 -0.2796  0.0942
  813THF    H1013566   1.305   1.888   2.057 -0.6849  1.0056 -0.9683
  813THF    H1113567   1.457   1.811   2.104  0.0030 -2.2230 -1.4054
  813THF    H1213568   1.420   1.648   1.943 -0.7157 -0.1067  1.5302
  813THF    H1313569   1.252   1.713   1.941 -0.5946  1.2084  1.3778
  814THF     O113570   3.519   1.176   1.906  0.3108  0.1058 -0.3285
  814THF     C213571   3.638   1.187   1.841  0.0466 -0.0426  0.1455
  814THF     C313572   3.431   1.095   1.827 -0.4597  0.4253 -0.5075
  814THF     H413573   3.719   1.149   1.903  1.2772 -1.3691 -2.1290
  814THF     H513574   3.661   1.293   1.829  2.1608 -0.7547 -3.7361
  814THF     H613575   3.386   1.020   1.893  0.1198  0.7736  0.3065
  814THF     H713576   3.342   1.150   1.798  0.1245  2.9728  1.9942
  814THF     C813577   3.508   1.032   1.712  0.3992 -0.3009 -0.2808
  814THF     C913578   3.622   1.129   1.698  0.0959  0.4492  0.6910
  814THF    H1013579   3.447   1.022   1.622 -0.4944  0.9947  0.1453
  814THF    H1113580   3.550   0.940   1.754  0.3436 -0.8017 -1.2886
  814THF    H1213581   3.716   1.079   1.675 -0.4004 -1.1948  1.9993
  814THF    H1313582   3.604   1.203   1.620 -0.3443  0.1980  0.5494
  815THF     O113583   4.197   4.829   1.889  0.3471 -0.0358  0.1364
  815THF     C213584   4.141   4.963   1.922 -0.4259 -0.3660 -0.2108
  815THF     C313585   4.337   4.840   1.865  0.0896  0.4155  0.5875
  815THF     H413586   4.121   4.980   2.028 -0.3598 -0.2802 -0.2116
  815THF     H513587   4.045   4.967   1.872 -0.1878 -1.3043 -0.7569
  815THF     H613588   4.381   4.846   1.964 -1.0027  0.5748  1.0785
  815THF     H713589   4.379   4.752   1.817  1.3572 -0.2039  2.7006
  815THF     C813590   4.338   4.964   1.789  0.4886  0.0948  0.2149
  815THF     C913591   4.249   5.057   1.865  0.1408 -0.4603  0.2508
  815THF    H1013592   4.300   4.944   1.689  1.8604 -0.3434 -0.2471
  815THF    H1113593   4.443   4.991   1.776  0.9478 -1.6478 -0.0022
  815THF    H1213594   4.297   5.115   1.944 -1.3875 -0.3409  1.1465
  815THF    H1313595   4.204   5.127   1.796  3.0574  1.4139  0.0820
  816THF     O113596   1.748   1.626   1.736  0.5207 -0.5189  0.1136
  816THF     C213597   1.859   1.675   1.811  0.0307  1.0159  0.2672
  816THF     C313598   1.688   1.522   1.801 -0.0556  0.5701 -0.6642
  816THF     H413599   1.827   1.728   1.901 -0.0187  1.4290  0.0120
  816THF     H513600   1.916   1.739   1.743  2.3388 -1.4660 -0.2634
  816THF     H613601   1.628   1.553   1.887  0.8914 -1.9213  0.9978
  816THF     H713602   1.622   1.476   1.727  0.1804 -1.2039  0.1863
  816THF     C813603   1.811   1.439   1.853 -0.0591 -0.8084  0.0229
  816THF     C913604   1.921   1.543   1.846 -0.2243 -0.0408  0.0070
  816THF    H1013605   1.854   1.355   1.800  1.1141 -1.0060  1.2388
  816THF    H1113606   1.790   1.411   1.957 -0.3908  1.1168  0.5174
  816THF    H1213607   1.970   1.551   1.944 -1.0479  1.0287  0.3396
  816THF    H1313608   1.995   1.507   1.774 -0.7748  1.2419 -1.2407
  817THF     O113609   1.642   0.359   0.453 -0.6434  0.0272 -0.3794
  817THF     C213610   1.762   0.337   0.518 -0.9395  0.5666  0.0815
  817THF     C313611   1.653   0.305   0.326  0.4431  0.3024  0.0068
  817THF     H413612   1.775   0.231   0.536 -0.3712  0.5832 -0.1901
  817THF     H513613   1.766   0.389   0.614 -1.6567  0.2093  0.3083
  817THF     H613614   1.631   0.198   0.324 -0.2333  0.4092  0.8963
  817THF     H713615   1.581   0.356   0.263  0.0655 -0.4751 -0.2044
  817THF     C813616   1.797   0.321   0.282 -0.4625  0.3020  0.0809
  817THF     C913617   1.857   0.377   0.408  0.1147 -0.2013 -0.0565
  817THF    H1013618   1.801   0.381   0.191 -1.0082  0.3285  0.0661
  817THF    H1113619   1.850   0.230   0.255 -2.9185 -1.5634  1.1539
  817THF    H1213620   1.955   0.331   0.423  0.4720 -0.2934 -2.3231
  817THF    H1313621   1.867   0.485   0.408  0.5846 -0.2374  0.9578
  818THF     O113622   1.729   5.147   4.551  0.2191 -0.3634  0.3301
  818THF     C213623   1.672   5.242   4.461 -0.4098 -0.7011 -0.2550
  818THF     C313624   1.865   5.123   4.532 -0.2447 -0.5959  0.2059
  818THF     H413625   1.594   5.302   4.509 -1.7150 -2.5725  0.0409
  818THF     H513626   1.632   5.198   4.370  1.3642 -2.8975 -0.0451
  818THF     H613627   1.927   5.135   4.621 -0.0539  0.6903 -0.0867
  818THF     H713628   1.869   5.018   4.503  3.2276 -0.7002  0.6360
  818THF     C813629   1.908   5.224   4.430 -0.3893 -0.2036  0.4414
  818THF     C913630   1.794   5.328   4.431 -0.5367  0.2091 -0.2699
  818THF    H1013631   1.908   5.173   4.333  3.1474 -0.8053  0.6159
  818THF    H1113632   2.008   5.267   4.435 -0.5810  0.1675  1.1829
  818THF    H1213633   1.822   5.401   4.507  0.7431  0.5936 -1.0768
  818THF    H1313634   1.799   5.380   4.336 -1.7311  0.0779 -0.4178
  819THF     O113635   2.314   1.333   3.772 -0.0506 -0.1050  0.4162
  819THF     C213636   2.442   1.397   3.770  0.1232 -0.6230 -0.4485
  819THF     C313637   2.244   1.376   3.887 -0.0186  0.5244  0.3807
  819THF     H413638   2.437   1.496   3.724  0.4980  0.2529  1.3007
  819THF     H513639   2.514   1.344   3.708  0.9561 -0.3629  0.2800
  819THF     H613640   2.200   1.474   3.868 -2.8223 -0.7238 -0.0180
  819THF     H713641   2.166   1.303   3.910 -0.5436  1.4567  1.7480
  819THF     C813642   2.353   1.389   3.994 -0.0009 -0.0904 -0.8377
  819THF     C913643   2.487   1.397   3.918  0.0207  0.6821  0.7757
  819THF    H1013644   2.355   1.303   4.061 -1.8229  0.4807  0.0310
  819THF    H1113645   2.351   1.478   4.057  2.7804  0.1156 -0.9248
  819THF    H1213646   2.544   1.487   3.941 -1.0128  1.5084  0.2525
  819THF    H1313647   2.545   1.308   3.943  1.2561  1.6526  1.4567
  820THF     O113648   3.293   5.272   1.351 -0.4893 -0.3575  0.1693
  820THF     C213649   3.234   5.212   1.464 -0.2598 -0.3130 -0.1965
  820THF     C313650   3.360   5.177   1.266  0.0269 -0.3150 -0.3443
  820THF     H413651   3.126   5.225   1.455 -0.0104  0.6735 -2.0804
  820THF     H513652   3.255   5.269   1.555 -1.3533 -2.3374  1.4440
  820THF     H613653   3.313   5.186   1.167 -0.2755 -2.1578 -0.4062
  820THF     H713654   3.469   5.177   1.264  0.1811  2.3609 -4.2417
  820THF     C813655   3.309   5.047   1.327  0.5392  0.0907  0.5561
  820THF     C913656   3.276   5.065   1.468 -0.3295 -0.6548 -0.7524
  820THF    H1013657   3.375   4.961   1.315  1.4581  0.8554 -0.0561
  820THF    H1113658   3.217   5.021   1.274  0.9270 -0.1882  0.0073
  820THF    H1213659   3.197   4.996   1.500  1.5066 -1.2333  3.1902
  820THF    H1313660   3.355   5.053   1.542 -1.2421  1.7719  0.7467
  821THF     O113661   0.224   0.549   1.449  0.0174 -0.2840  0.1820
  821THF     C213662   0.234   0.405   1.486  0.0736 -0.1251 -0.3892
  821THF     C313663   0.120   0.613   1.522  0.5581  0.1991  0.6686
  821THF     H413664   0.335   0.384   1.522 -0.1716  0.1018  0.4569
  821THF     H513665   0.213   0.340   1.402 -1.3419 -0.7163  0.3972
  821THF     H613666   0.135   0.715   1.557  2.3270  0.0142  0.5400
  821THF     H713667   0.036   0.599   1.455  0.6236 -1.4797  0.8798
  821THF     C813668   0.110   0.528   1.649  0.0988  0.1701 -0.5422
  821THF     C913669   0.130   0.390   1.592  0.2741  0.9740  0.9184
  821THF    H1013670   0.013   0.549   1.693 -0.5885 -0.7043 -1.5736
  821THF    H1113671   0.186   0.562   1.719 -0.0657 -0.5856  0.0241
  821THF    H1213672   0.160   0.309   1.659  1.5017  1.8443  1.4439
  821THF    H1313673   0.032   0.374   1.545  0.6659  0.7291  0.1654
  822THF     O113674   0.121   4.026   5.099  0.4076 -0.4016  0.2481
  822THF     C213675   0.045   3.904   5.103 -0.1605 -0.5536 -0.5188
  822THF     C313676   0.258   3.995   5.062  0.1286  0.8337  0.1885
  822THF     H413677  -0.063   3.921   5.103 -0.1313 -0.3544 -0.3043
  822THF     H513678   0.080   3.863   5.198  0.4844  1.4936  0.1794
  822THF     H613679   0.299   4.080   5.007 -1.6245  0.5287 -1.6921
  822THF     H713680   0.337   3.990   5.138  0.8718  0.3330 -0.6039
  822THF     C813681   0.247   3.868   4.977 -0.6061  0.4282 -1.4056
  822THF     C913682   0.101   3.835   4.985  0.1858  0.7072  0.6702
  822THF    H1013683   0.317   3.787   4.995 -1.4013 -0.1088 -0.6491
  822THF    H1113684   0.274   3.903   4.877  3.9841 -0.3434 -0.6744
  822THF    H1213685   0.058   3.888   4.900  0.5360 -0.4092 -0.2293
  822THF    H1313686   0.090   3.727   4.986  2.3788  0.4020 -0.9202
  823THF     O113687   4.493   3.262   0.132  0.4679 -0.1190 -0.5944
  823THF     C213688   4.377   3.193   0.071  0.5188  0.0042  0.2381
  823THF     C313689   4.576   3.169   0.200 -0.3077  0.2222 -0.1005
  823THF     H413690   4.385   3.209  -0.036  0.3264  1.8714  0.4564
  823THF     H513691   4.280   3.232   0.101 -0.7465 -1.4834 -1.6973
  823THF     H613692   4.650   3.130   0.130 -0.4845  1.1422 -0.8245
  823THF     H713693   4.622   3.220   0.284 -0.2051  0.6670 -0.4204
  823THF     C813694   4.482   3.059   0.235  0.3240  0.3460 -0.0811
  823THF     C913695   4.385   3.051   0.118 -0.2372  0.4861  0.0156
  823THF    H1013696   4.434   3.094   0.325  0.9338  2.5592 -0.5681
  823THF    H1113697   4.536   2.966   0.258 -1.5403 -0.7237  0.1549
  823THF    H1213698   4.438   2.989   0.045 -0.7092  1.9739 -1.6735
  823THF    H1313699   4.282   3.021   0.132 -0.6170  1.6061 -0.2813
  824THF     O113700   1.211   0.550   2.226  0.1901 -0.0699  0.7809
  824THF     C213701   1.304   0.645   2.177 -0.1998 -0.2745  0.4130
  824THF     C313702   1.288   0.442   2.278 -0.1527 -0.1177  0.1771
  824THF     H413703   1.353   0.703   2.255  0.6778 -1.1172  0.5082
  824THF     H513704   1.256   0.721   2.115  1.0414 -0.0785 -0.3423
  824THF     H613705   1.335   0.465   2.373 -0.2488 -2.8741  0.9655
  824THF     H713706   1.214   0.363   2.286 -0.3925 -0.1225 -1.7084
  824THF     C813707   1.380   0.415   2.160  0.0994 -0.1245 -0.2284
  824THF     C913708   1.406   0.555   2.104  0.3633  0.0720  0.4206
  824THF    H1013709   1.328   0.358   2.083 -0.9614  1.1572 -0.5049
  824THF    H1113710   1.474   0.368   2.186 -0.4927 -0.8054  0.7690
  824THF    H1213711   1.506   0.599   2.113  1.0545 -0.6660 -2.5938
  824THF    H1313712   1.391   0.554   1.996  1.0222  0.4546  0.3169
  825THF     O113713   2.352   1.605   3.504 -0.1652  0.3272  0.3338
  825THF     C213714   2.369   1.524   3.389 -0.6947 -0.3256 -0.1790
  825THF     C313715   2.348   1.733   3.450  0.3300  0.3921  0.1019
  825THF     H413716   2.277   1.486   3.346 -1.5025  0.7439  0.5296
  825THF     H513717   2.419   1.439   3.435  1.4141  0.5287 -0.7726
  825THF     H613718   2.254   1.747   3.396  0.0649  2.1018  0.9478
  825THF     H713719   2.363   1.814   3.521  1.0210  0.7113 -0.3951
  825THF     C813720   2.465   1.744   3.351 -0.0629 -0.6521  0.7763
  825THF     C913721   2.457   1.608   3.289  0.1865 -0.0371  0.1805
  825THF    H1013722   2.558   1.765   3.404 -1.6786  0.5860  3.3056
  825THF    H1113723   2.429   1.825   3.288 -2.0708 -0.7457  1.7445
  825THF    H1213724   2.399   1.610   3.197  2.8081 -1.3097 -1.6357
  825THF    H1313725   2.551   1.570   3.249  1.4398  0.7571  2.2097
  826THF     O113726   4.201   4.619   2.133 -0.7906  0.0745 -0.3208
  826THF     C213727   4.249   4.496   2.201 -0.4869  1.1926  0.3524
  826THF     C313728   4.172   4.715   2.237 -0.3866 -0.7114 -0.3078
  826THF     H413729   4.325   4.438   2.148  0.0550  1.9955  0.2288
  826THF     H513730   4.162   4.432   2.214  0.2683 -0.1034 -0.7553
  826THF     H613731   4.231   4.804   2.215 -2.2886  0.3343 -1.5325
  826THF     H713732   4.068   4.747   2.236 -0.1082  0.2159  0.0504
  826THF     C813733   4.211   4.647   2.367 -0.6236 -1.0065  0.4338
  826THF     C913734   4.301   4.531   2.339 -0.3174 -0.1241 -0.6386
  826THF    H1013735   4.125   4.603   2.417  0.1069 -1.6517  1.1600
  826THF    H1113736   4.266   4.702   2.444 -1.2222 -1.6475  1.3335
  826THF    H1213737   4.402   4.572   2.338 -0.8556  1.2475 -1.7047
  826THF    H1313738   4.303   4.454   2.417  0.0408  0.0418 -0.4800
  827THF     O113739   2.096   2.287   5.097 -0.1127  0.0801  0.3476
  827THF     C213740   2.051   2.274   5.230  0.0043  0.4430 -0.1080
  827THF     C313741   1.987   2.323   5.015 -0.8154 -0.0278  0.3269
  827THF     H413742   2.087   2.358   5.289  0.5036  0.0647  0.1352
  827THF     H513743   2.093   2.190   5.286  0.3684  1.7610  1.6688
  827THF     H613744   2.010   2.417   4.966  0.2700  0.0291  0.9247
  827THF     H713745   1.985   2.255   4.930  1.9880  0.8069 -0.5070
  827THF     C813746   1.869   2.341   5.101 -0.0650  0.6729  0.1222
  827THF     C913747   1.897   2.258   5.222  0.0313  0.1498  0.1891
  827THF    H1013748   1.774   2.301   5.064 -0.2038  0.3713  0.7956
  827THF    H1113749   1.851   2.445   5.127 -1.4119  0.5081 -0.0658
  827THF    H1213750   1.842   2.288   5.310 -0.4024 -0.4354  0.1214
  827THF    H1313751   1.887   2.151   5.203  3.5295 -0.4337  1.0152
  828THF     O113752   3.253   1.536   2.593  0.3177  0.0082  0.1880
  828THF     C213753   3.260   1.636   2.696  0.2690 -0.2078 -0.0113
  828THF     C313754   3.370   1.456   2.611  0.4348  0.1115  0.0021
  828THF     H413755   3.217   1.602   2.790  0.2586 -2.6727 -0.8317
  828THF     H513756   3.207   1.728   2.674 -0.2138 -0.5604 -0.3609
  828THF     H613757   3.359   1.401   2.705 -1.2320 -0.4729 -0.4960
  828THF     H713758   3.401   1.386   2.534 -1.0406 -0.3606 -0.1914
  828THF     C813759   3.483   1.551   2.650 -0.2622 -0.5475  0.2826
  828THF     C913760   3.411   1.653   2.726  0.2650  0.1142  0.5203
  828THF    H1013761   3.534   1.601   2.568 -0.6021  1.2428  1.1288
  828THF    H1113762   3.569   1.513   2.704  0.6816  0.9247 -0.1279
  828THF    H1213763   3.433   1.630   2.830  0.5610  1.5218  0.7926
  828THF    H1313764   3.455   1.750   2.706  0.5698 -0.4912 -2.0567
  829THF     O113765   1.222   4.931   0.616  0.5202  0.3338 -0.0820
  829THF     C213766   1.215   4.792   0.576 -0.1215  0.0176 -0.2635
  829THF     C313767   1.350   4.979   0.562 -0.3199 -0.3416 -0.2222
  829THF     H413768   1.115   4.750   0.581 -0.5521  1.0421 -0.0625
  829THF     H513769   1.254   4.741   0.664  0.1684 -1.6988 -1.3423
  829THF     H613770   1.370   5.085   0.553  0.1471 -0.4782 -0.8346
  829THF     H713771   1.425   4.951   0.636 -0.2400 -0.2117 -0.2550
  829THF     C813772   1.376   4.915   0.427  0.0372 -0.4669  0.0426
  829THF     C913773   1.290   4.789   0.441 -0.1383 -0.1704 -0.1332
  829THF    H1013774   1.481   4.887   0.422  0.4469  0.5483  1.8191
  829THF    H1113775   1.358   4.973   0.337  1.8209  3.8444  2.1403
  829THF    H1213776   1.215   4.773   0.364  0.7678  0.0135 -1.0868
  829THF    H1313777   1.348   4.697   0.439 -0.9913 -0.7073 -0.3153
  830THF     O113778   5.377   1.877   3.014  0.0068 -0.7155  0.0227
  830THF     C213779   5.242   1.914   2.995 -0.1399 -0.9198 -0.8655
  830THF     C313780   5.443   1.962   3.107 -0.0304  0.3920  0.2575
  830THF     H413781   5.168   1.840   2.964 -1.2718 -0.9508  1.6525
  830THF     H513782   5.225   1.977   2.907  1.0633 -0.5127 -0.8259
  830THF     H613783   5.477   1.885   3.176 -0.5090 -1.9807 -2.0103
  830THF     H713784   5.523   2.011   3.052  0.8806 -0.3299  0.9038
  830THF     C813785   5.338   2.057   3.172  0.4853  0.4502 -0.1553
  830THF     C913786   5.206   1.985   3.135 -0.0048  0.2444 -0.6454
  830THF    H1013787   5.335   2.161   3.141 -0.5672  1.3597  2.7426
  830THF    H1113788   5.337   2.065   3.280 -0.3865 -1.0870 -0.0200
  830THF    H1213789   5.170   1.909   3.204 -2.5375  0.8693 -1.1638
  830THF    H1313790   5.125   2.059   3.139 -0.7449 -0.6158  0.7711
  831THF     O113791   2.317   4.581   2.706 -0.1541  0.5621 -0.2363
  831THF     C213792   2.220   4.536   2.806  0.3565 -0.0101 -0.1871
  831THF     C313793   2.247   4.658   2.616 -0.2339 -0.3272 -0.5636
  831THF     H413794   2.259   4.552   2.906 -1.2218  1.8071  0.1923
  831THF     H513795   2.211   4.432   2.774  0.3581 -0.3091  0.7491
  831THF     H613796   2.307   4.733   2.563  0.3987 -0.4734 -0.0619
  831THF     H713797   2.207   4.592   2.539  1.6571 -2.7580  0.4167
  831THF     C813798   2.126   4.727   2.682 -0.0361  0.9410 -0.1978
  831THF     C913799   2.099   4.628   2.795  0.8467  0.0214 -0.6314
  831THF    H1013800   2.053   4.735   2.602 -0.3512 -1.1020 -0.1698
  831THF    H1113801   2.154   4.824   2.722 -1.3741  1.3242 -0.1722
  831THF    H1213802   2.072   4.675   2.889 -3.3490 -1.1210 -1.0447
  831THF    H1313803   2.014   4.563   2.769 -1.5662  2.1805  1.3648
  832THF     O113804   4.759   1.883   4.223 -0.0917 -0.2683 -0.1583
  832THF     C213805   4.711   1.948   4.343 -0.2307 -0.7151  0.8582
  832THF     C313806   4.849   1.785   4.262 -0.0430  0.6116  0.2140
  832THF     H413807   4.624   1.893   4.377 -1.9379  1.0961 -0.3826
  832THF     H513808   4.684   2.052   4.325 -1.1238 -0.8669  1.2930
  832THF     H613809   4.811   1.693   4.305 -1.3041 -0.7278 -3.3724
  832THF     H713810   4.906   1.746   4.177 -0.2304  1.7197 -0.4469
  832THF     C813811   4.936   1.855   4.361  0.0709  0.1783  0.3557
  832THF     C913812   4.830   1.941   4.443  0.1700  1.2592  0.1689
  832THF    H1013813   5.013   1.911   4.308  0.2565 -0.5688 -0.1832
  832THF    H1113814   4.995   1.785   4.420 -1.1530 -1.7003 -0.5542
  832THF    H1213815   4.786   1.894   4.530  0.2930  0.2542 -0.3021
  832THF    H1313816   4.872   2.038   4.471  0.4894  1.2024 -0.1049
  833THF     O113817   3.557   4.742   5.080 -0.4447 -0.4113  0.1368
  833THF     C213818   3.577   4.835   4.975 -0.4443  0.6337 -0.0643
  833THF     C313819   3.642   4.774   5.186 -0.5095 -0.0534 -1.1636
  833THF     H413820   3.488   4.838   4.911 -1.1819 -2.2619  0.6752
  833THF     H513821   3.663   4.814   4.912 -1.3023 -1.3359 -0.6555
  833THF     H613822   3.618   4.735   5.284  1.9091 -0.1153 -0.5343
  833THF     H713823   3.745   4.747   5.160 -0.1624  1.6382 -1.6951
  833THF     C813824   3.655   4.927   5.182  0.1149  0.2661  0.0846
  833THF     C913825   3.599   4.966   5.047 -0.3209 -0.5657  0.1416
  833THF    H1013826   3.762   4.951   5.188 -0.1167  1.2450  0.5065
  833THF    H1113827   3.614   4.972   5.272  1.8687 -1.7748  2.0587
  833THF    H1213828   3.514   5.035   5.045  0.9613  1.0771  0.5434
  833THF    H1313829   3.678   5.018   4.994 -0.3427 -1.1328 -0.4657
  834THF     O113830   4.834   4.248   4.709  0.2294  0.3683 -0.2854
  834THF     C213831   4.959   4.275   4.778  0.4649  0.1742 -0.0134
  834THF     C313832   4.872   4.228   4.572  0.3230  0.5166  0.6132
  834THF     H413833   4.946   4.266   4.886 -0.7559  2.0066  0.0274
  834THF     H513834   5.014   4.366   4.755 -0.2436  0.8304  0.8254
  834THF     H613835   4.801   4.173   4.510  1.1725  0.2633 -0.1662
  834THF     H713836   4.875   4.323   4.520 -0.1157 -0.0927 -0.5555
  834THF     C813837   5.008   4.161   4.581 -0.3487  0.8010  0.4960
  834THF     C913838   5.048   4.164   4.721 -0.1000 -0.3973  0.3506
  834THF    H1013839   5.085   4.216   4.527  0.2543 -0.2450  0.2588
  834THF    H1113840   5.008   4.057   4.546 -2.2061  0.7482  0.5363
  834THF    H1213841   5.009   4.077   4.773 -2.7470 -0.5704 -1.6919
  834THF    H1313842   5.150   4.191   4.748  0.0416 -0.9416  0.3612
  835THF     O113843   4.227   3.341   4.356  0.3245 -0.1221 -0.3127
  835THF     C213844   4.351   3.396   4.402  1.0017  0.0667  0.1408
  835THF     C313845   4.134   3.341   4.467 -0.5295 -0.2858  0.3885
  835THF     H413846   4.411   3.423   4.315  1.3209 -2.4628 -0.5136
  835THF     H513847   4.417   3.333   4.462 -0.5708  0.0997  2.0137
  835THF     H613848   4.038   3.352   4.416  0.1551 -1.6880 -1.3041
  835THF     H713849   4.134   3.246   4.519  1.7881  0.1774  1.3383
  835THF     C813850   4.179   3.458   4.561  0.5586  0.3222  0.0995
  835THF     C913851   4.297   3.507   4.489  0.2191 -0.4676 -0.1453
  835THF    H1013852   4.211   3.412   4.654 -1.2078  1.4912  1.3556
  835THF    H1113853   4.101   3.529   4.587 -0.5496 -0.8762  0.1233
  835THF    H1213854   4.266   3.595   4.432  0.0787 -0.7069 -0.4401
  835THF    H1313855   4.377   3.544   4.553 -0.7842  0.6518  0.5030
  836THF     O113856   4.341   4.235   3.706 -0.3869  0.2053  0.0572
  836THF     C213857   4.361   4.270   3.846  0.3894 -0.2400 -0.0169
  836THF     C313858   4.480   4.203   3.668  0.0486  0.6708  0.1994
  836THF     H413859   4.271   4.270   3.908 -0.8063 -0.5647 -1.7129
  836THF     H513860   4.411   4.365   3.861 -1.4513  0.7569  0.0061
  836THF     H613861   4.483   4.161   3.568 -1.3594  2.8998 -0.8592
  836THF     H713862   4.545   4.290   3.667  1.9880 -0.7198  0.1980
  836THF     C813863   4.513   4.098   3.775  0.2086  0.1337  0.0355
  836THF     C913864   4.451   4.160   3.898  0.1924 -0.0278  0.6696
  836THF    H1013865   4.620   4.080   3.783  0.0606 -0.6795  0.2249
  836THF    H1113866   4.464   4.003   3.754 -0.0862  0.1452  0.6810
  836THF    H1213867   4.395   4.083   3.952 -0.7710  0.2803  0.1287
  836THF    H1313868   4.522   4.189   3.975 -1.3052 -0.6328  2.3539
  837THF     O113869   0.498   0.313   2.262 -0.4291 -0.1351  0.2156
  837THF     C213870   0.430   0.438   2.302  0.4964  0.0159 -0.4873
  837THF     C313871   0.429   0.248   2.156  0.2127 -0.4620 -0.1472
  837THF     H413872   0.497   0.525   2.297  1.4346 -0.1262  4.3142
  837THF     H513873   0.388   0.432   2.403 -0.6266 -1.0555 -0.9997
  837THF     H613874   0.496   0.190   2.092  1.8607 -1.1873  2.1179
  837THF     H713875   0.340   0.189   2.181  0.2293 -0.2414  0.4421
  837THF     C813876   0.368   0.363   2.081  0.0648  0.5252  1.0880
  837THF     C913877   0.320   0.450   2.196 -0.2398 -0.2111 -0.1515
  837THF    H1013878   0.288   0.329   2.016  0.8207 -0.8989  0.8729
  837THF    H1113879   0.440   0.417   2.020  0.5821 -1.7528 -0.4451
  837THF    H1213880   0.295   0.550   2.160 -0.5113  0.1054  0.9042
  837THF    H1313881   0.227   0.409   2.236 -0.9179  0.5249 -0.9221
  838THF     O113882   4.599   4.429   1.894  0.4805 -0.2526  0.2477
  838THF     C213883   4.626   4.360   2.010  0.1425  0.6800 -0.3145
  838THF     C313884   4.525   4.548   1.913  0.6360  1.0144  0.1712
  838THF     H413885   4.706   4.286   2.000  0.7591  0.8533  2.5270
  838THF     H513886   4.533   4.309   2.035  0.8796 -1.7007 -1.9857
  838THF     H613887   4.557   4.617   1.834  1.1091  2.1794  1.3486
  838THF     H713888   4.417   4.539   1.910  0.6230  1.3174 -1.4844
  838THF     C813889   4.576   4.594   2.050 -0.3834 -0.0790 -0.1315
  838THF     C913890   4.656   4.479   2.114 -0.2498  0.0741  0.5645
  838THF    H1013891   4.496   4.617   2.120 -1.0608  1.2498 -1.2972
  838THF    H1113892   4.634   4.684   2.030  0.3527 -0.1650  1.4940
  838THF    H1213893   4.759   4.507   2.136 -0.7696 -0.2739  4.0287
  838THF    H1313894   4.611   4.447   2.208 -3.9939 -0.7445 -1.2950
  839THF     O113895   4.693   5.052   2.960  0.2911 -0.0420 -0.0339
  839THF     C213896   4.671   5.094   2.826  0.4988  0.5398  0.2160
  839THF     C313897   4.767   5.151   3.030  0.7003 -0.5854  0.1558
  839THF     H413898   4.565   5.111   2.811  0.0022 -1.0210  1.6487
  839THF     H513899   4.708   5.019   2.756 -0.3232  0.6784 -0.3748
  839THF     H613900   4.741   5.159   3.136  0.1397 -1.3545  0.0781
  839THF     H713901   4.870   5.116   3.019  0.6804 -0.9651  1.0824
  839THF     C813902   4.741   5.275   2.950 -0.4559  0.7473  0.8736
  839THF     C913903   4.741   5.227   2.804 -0.1207  0.9586  0.1493
  839THF    H1013904   4.823   5.343   2.976  0.0197  0.4552  0.1690
  839THF    H1113905   4.644   5.319   2.971 -1.2665 -0.1821 -0.7345
  839THF    H1213906   4.680   5.295   2.744 -0.9577  0.6964  0.6804
  839THF    H1313907   4.845   5.219   2.773 -0.1379 -1.3760  0.5023
  840THF     O113908   4.638   3.138   1.047 -0.0193 -1.2915 -0.6444
  840THF     C213909   4.510   3.187   1.085 -0.0962  0.0869 -0.5129
  840THF     C313910   4.636   3.112   0.913  0.3374 -0.1444  0.8806
  840THF     H413911   4.515   3.245   1.178 -1.1039 -0.2463 -0.2339
  840THF     H513912   4.449   3.097   1.097  1.5579 -0.9969  0.1991
  840THF     H613913   4.742   3.101   0.888 -0.3418 -1.6284 -1.7411
  840THF     H713914   4.587   3.022   0.875 -0.2743  1.4951 -2.5849
  840THF     C813915   4.561   3.223   0.856 -0.4169  0.4640 -0.6019
  840THF     C913916   4.475   3.275   0.973 -0.2548 -0.2940  0.0592
  840THF    H1013917   4.495   3.198   0.773 -0.4291 -1.0476 -0.1610
  840THF    H1113918   4.636   3.295   0.826  1.5001  0.1162  2.8207
  840THF    H1213919   4.514   3.374   0.994  1.1740 -0.6424 -0.8339
  840THF    H1313920   4.369   3.294   0.954 -0.2608 -0.5340 -0.1579
  841THF     O113921   5.387   5.256   2.418 -0.5978  0.3262  0.9256
  841THF     C213922   5.431   5.392   2.430  0.5440  0.1749 -0.8177
  841THF     C313923   5.420   5.206   2.288 -0.6846 -0.3150 -0.3966
  841THF     H413924   5.474   5.419   2.527  0.9911  2.0952 -1.5001
  841THF     H513925   5.344   5.457   2.418  0.9463  0.7659 -0.6156
  841THF     H613926   5.435   5.098   2.287  1.0462 -0.0950 -0.0413
  841THF     H713927   5.341   5.220   2.214  0.2841 -1.2868 -1.6642
  841THF     C813928   5.560   5.272   2.265  0.4114 -0.0981 -0.0602
  841THF     C913929   5.534   5.411   2.315  0.3094  0.1958 -0.5479
  841THF    H1013930   5.600   5.266   2.164  0.9205 -2.7874  0.2399
  841THF    H1113931   5.622   5.212   2.332 -0.7232 -1.4677 -0.2065
  841THF    H1213932   5.623   5.470   2.340 -1.1253  2.7114 -0.9758
  841THF    H1313933   5.485   5.481   2.247  0.6162  2.4858  1.4446
  842THF     O113934   3.028   1.604   4.149  0.1961 -0.0097 -0.6104
  842THF     C213935   2.928   1.502   4.139 -0.0152 -0.8631  0.8058
  842THF     C313936   3.122   1.559   4.243 -0.5191  0.3947 -0.2623
  842THF     H413937   2.868   1.510   4.048  0.7237 -3.1020  0.0686
  842THF     H513938   2.863   1.526   4.223 -1.7318  0.0032 -0.6999
  842THF     H613939   3.215   1.616   4.246  1.1581 -2.0668 -1.7485
  842THF     H713940   3.076   1.566   4.342 -0.1545 -1.0871  0.0433
  842THF     C813941   3.147   1.419   4.194  0.6438  0.0626 -0.1124
  842THF     C913942   3.008   1.379   4.153 -0.6329 -0.0156  0.4304
  842THF    H1013943   3.200   1.360   4.270  0.4902  1.1461  0.8649
  842THF    H1113944   3.225   1.434   4.120  1.0750  2.4075  0.7166
  842THF    H1213945   3.018   1.328   4.057 -0.6207 -0.1629  0.5091
  842THF    H1313946   2.961   1.318   4.230 -0.2151  2.1427  2.5183
  843THF     O113947   4.778   1.890   3.517 -0.1055  0.2485  0.3622
  843THF     C213948   4.680   1.821   3.592  0.7193 -0.2750  0.0185
  843THF     C313949   4.888   1.803   3.499 -0.2406  0.0738 -0.7452
  843THF     H413950   4.581   1.858   3.565  0.6889  1.3359  2.0555
  843THF     H513951   4.713   1.846   3.693  1.9758  1.3333 -0.7342
  843THF     H613952   4.960   1.847   3.429  3.0274 -1.4947  1.3520
  843THF     H713953   4.950   1.774   3.584 -1.2541 -0.9345 -0.3312
  843THF     C813954   4.821   1.668   3.465 -0.6672  0.0901 -0.5625
  843THF     C913955   4.691   1.667   3.549 -0.1438  0.2276 -0.2361
  843THF    H1013956   4.886   1.581   3.477  1.0785  1.3483 -0.5457
  843THF    H1113957   4.798   1.672   3.359  0.9260  0.3420 -0.9221
  843THF    H1213958   4.619   1.609   3.492 -0.9341 -0.4610  1.3921
  843THF    H1313959   4.702   1.598   3.633 -1.7915  0.9637  0.6419
  844THF     O113960   0.923   3.611   3.296  0.1025  0.1852  0.4083
  844THF     C213961   0.872   3.483   3.252  0.0855  0.0449  0.0708
  844THF     C313962   0.815   3.697   3.326 -0.7830 -0.5252  0.0310
  844THF     H413963   0.847   3.425   3.341  0.2680 -0.6913 -0.3505
  844THF     H513964   0.952   3.425   3.205 -0.1441 -1.0550  0.9724
  844THF     H613965   0.756   3.683   3.417  0.3488 -1.9334  0.5826
  844THF     H713966   0.851   3.799   3.314  0.8234 -1.3039 -2.3037
  844THF     C813967   0.715   3.666   3.209  0.1153 -0.5161  0.8960
  844THF     C913968   0.756   3.524   3.162  0.4066  0.0490 -0.2779
  844THF    H1013969   0.740   3.732   3.126 -1.2131 -0.9097  0.1526
  844THF    H1113970   0.610   3.681   3.233 -0.5383 -1.4524 -1.1700
  844THF    H1213971   0.680   3.446   3.155 -1.5785  1.8553 -0.0522
  844THF    H1313972   0.800   3.534   3.063  2.4189  0.1932  0.5938
  845THF     O113973   0.197   0.610   4.844  0.0926  0.0373  0.5838
  845THF     C213974   0.168   0.715   4.928  0.1436 -0.7148 -0.7379
  845THF     C313975   0.091   0.589   4.754 -0.2228 -0.3459 -0.2917
  845THF     H413976   0.253   0.780   4.950  0.4416 -0.4187 -2.6199
  845THF     H513977   0.135   0.661   5.017 -0.7986  0.6568 -0.2253
  845THF     H613978   0.126   0.534   4.667  2.0020  0.7794 -0.2015
  845THF     H713979   0.015   0.531   4.806 -0.4726  1.8586  1.9937
  845THF     C813980   0.035   0.733   4.730 -1.1567  0.7814 -0.0924
  845THF     C913981   0.067   0.806   4.861  0.6701  0.7250  0.2185
  845THF    H1013982  -0.073   0.721   4.722 -1.1440  1.7027 -2.5124
  845THF    H1113983   0.088   0.783   4.649  0.1534  0.7790  0.7358
  845THF    H1213984   0.092   0.908   4.833  0.7912  0.0109 -2.6150
  845THF    H1313985  -0.022   0.802   4.923 -0.1127 -2.0248 -0.9073
  846THF     O113986   2.681   0.004   2.466 -0.5919 -0.1750 -0.0313
  846THF     C213987   2.801  -0.050   2.416 -0.1412 -0.6623  0.6260
  846THF     C313988   2.646   0.116   2.389  0.6798 -0.3818  0.1492
  846THF     H413989   2.771  -0.106   2.327 -0.8109  0.0980  0.3628
  846THF     H513990   2.859  -0.109   2.486  1.4308 -0.5017 -0.4860
  846THF     H613991   2.598   0.096   2.292 -0.6475 -1.3592  0.9712
  846THF     H713992   2.581   0.187   2.442  2.0835  1.8352 -0.9353
  846THF     C813993   2.771   0.185   2.359  0.0066  0.0010 -0.1986
  846THF     C913994   2.878   0.079   2.396  0.0428  0.0501 -0.7504
  846THF    H1013995   2.788   0.269   2.427  0.3336  0.3167 -0.6679
  846THF    H1113996   2.779   0.216   2.255  0.0715 -0.4642 -0.3359
  846THF    H1213997   2.952   0.067   2.316  1.3566 -0.3606  0.4879
  846THF    H1313998   2.936   0.103   2.485 -1.0770 -0.8763  0.2700
  847THF     O113999   5.315   1.268   2.676  0.2094  0.0242  0.1817
  847THF     C214000   5.380   1.354   2.583  0.1433  0.0309 -0.0098
  847THF     C314001   5.408   1.197   2.754 -0.4228 -0.3126  0.5930
  847THF     H414002   5.311   1.436   2.563 -2.4834 -2.3121 -1.4103
  847THF     H514003   5.385   1.309   2.483 -0.4261  0.5396 -0.2769
  847THF     H614004   5.367   1.143   2.839  0.5395 -2.7148 -0.3951
  847THF     H714005   5.466   1.135   2.686  0.8237  0.9380  0.4802
  847THF     C814006   5.520   1.306   2.778  0.0344  0.6384  0.0826
  847THF     C914007   5.519   1.388   2.646 -0.1582  0.0962  0.1361
  847THF    H1014008   5.619   1.265   2.796  0.0825  0.0502 -1.4373
  847THF    H1114009   5.495   1.365   2.867 -0.5156  1.3628 -0.5419
  847THF    H1214010   5.513   1.490   2.684 -1.3732 -0.1714  0.7363
  847THF    H1314011   5.602   1.371   2.578 -1.1123 -0.8110 -0.8344
  848THF     O114012   0.336   0.911   0.967 -0.0442 -0.4973 -0.2234
  848THF     C214013   0.272   0.946   1.092  0.2805 -0.3134 -0.0854
  848THF     C314014   0.464   0.977   0.958 -0.6220  0.4356  0.2753
  848THF     H414015   0.203   0.863   1.107 -0.5468 -0.2990 -3.0360
  848THF     H514016   0.234   1.046   1.073  1.4177 -0.1514 -1.8174
  848THF     H614017   0.537   0.917   0.902 -1.5801  0.0365 -0.5704
  848THF     H714018   0.467   1.075   0.910 -2.5736  0.9070  1.0545
  848THF     C814019   0.507   0.986   1.104  0.7274 -0.2555 -0.6515
  848THF     C914020   0.389   0.948   1.187 -0.3011 -0.0284 -0.2441
  848THF    H1014021   0.538   1.090   1.121  0.1960 -0.1890 -0.0806
  848THF    H1114022   0.586   0.911   1.108  0.3561 -0.7692 -2.2296
  848THF    H1214023   0.401   0.851   1.234 -0.0550  0.7985  1.4624
  848THF    H1314024   0.349   1.019   1.261 -1.3360 -0.7851 -0.0487
  849THF     O114025   2.001   2.832   4.573  1.1028  0.0717 -0.0062
  849THF     C214026   2.137   2.812   4.545 -0.5030  0.2218  0.1113
  849THF     C314027   1.947   2.711   4.633  0.6744  0.3066  0.6604
  849THF     H414028   2.182   2.897   4.596 -1.6919  0.0576  1.4915
  849THF     H514029   2.149   2.822   4.437 -1.6008 -0.2387 -0.0666
  849THF     H614030   1.929   2.705   4.740 -3.2625  0.1540  0.1166
  849THF     H714031   1.852   2.687   4.584 -0.4429  1.3632  2.2371
  849THF     C814032   2.049   2.609   4.602 -0.0859  0.9631 -0.4682
  849THF     C914033   2.184   2.682   4.609  0.2580 -0.1948  0.6728
  849THF    H1014034   2.036   2.562   4.504 -1.0198 -0.2573  0.2121
  849THF    H1114035   2.037   2.526   4.671 -1.3556  0.3316 -1.3994
  849THF    H1214036   2.211   2.706   4.712  0.8272  0.7895  0.3082
  849THF    H1314037   2.264   2.632   4.554  0.9350  1.5977 -0.0506
  850THF     O114038   4.687   3.816   2.836 -0.0352 -0.1574 -0.3004
  850THF     C214039   4.619   3.703   2.789  0.4353  0.2831 -0.0323
  850THF     C314040   4.702   3.814   2.978 -0.1512  0.3936  0.5491
  850THF     H414041   4.687   3.617   2.791  2.3276  1.7171  0.8910
  850THF     H514042   4.574   3.720   2.692  1.3791 -2.0973 -0.9755
  850THF     H614043   4.796   3.763   3.000 -1.1331 -1.9268 -0.4023
  850THF     H714044   4.703   3.914   3.022 -0.6415  0.1722  1.0707
  850THF     C814045   4.574   3.740   3.029 -0.0586 -0.1471 -0.3711
  850THF     C914046   4.509   3.681   2.901 -0.4431 -0.0022 -0.3442
  850THF    H1014047   4.503   3.808   3.077  2.3665  2.4091 -0.0942
  850THF    H1114048   4.601   3.660   3.098  3.7749 -0.3673 -1.8668
  850THF    H1214049   4.493   3.574   2.915  0.3393  0.0160  0.9010
  850THF    H1314050   4.415   3.732   2.880 -0.6558  0.8614  2.2748
  851THF     O114051   4.740   2.985   1.425 -0.0804 -0.1167  0.8323
  851THF     C214052   4.770   3.125   1.445 -0.3989 -0.1744  0.6240
  851THF     C314053   4.797   2.933   1.303  0.3587  0.0988  0.4362
  851THF     H414054   4.777   3.133   1.553 -1.6818 -0.3741  0.7341
  851THF     H514055   4.696   3.190   1.399 -0.0370 -0.0285  0.2345
  851THF     H614056   4.805   2.825   1.292  2.2332  0.2244  0.2840
  851THF     H714057   4.737   2.970   1.221 -0.2860 -0.7004  0.5422
  851THF     C814058   4.937   2.996   1.315 -0.0366 -0.3187  0.5346
  851THF     C914059   4.903   3.138   1.370 -0.4829  0.8226  0.6247
  851THF    H1014060   4.990   2.988   1.220  0.8433 -1.7027  1.1275
  851THF    H1114061   5.000   2.938   1.383  0.0014 -2.0615 -0.9264
  851THF    H1214062   4.990   3.179   1.422  0.1924 -0.9883  0.9839
  851THF    H1314063   4.902   3.201   1.281 -0.0904 -0.4231 -0.2743
  852THF     O114064   0.146   1.477   1.311  0.3442 -0.3111 -0.1463
  852THF     C214065   0.058   1.580   1.263 -0.2909 -0.3137 -0.2714
  852THF     C314066   0.152   1.480   1.459  0.0260 -1.2603 -1.5045
  852THF     H414067  -0.022   1.530   1.209  1.4317 -0.1441 -3.1991
  852THF     H514068   0.108   1.649   1.196 -1.1012  0.6508  0.0925
  852THF     H614069   0.074   1.413   1.495 -0.9802 -0.7932 -2.7193
  852THF     H714070   0.251   1.448   1.491 -0.0729 -0.9784 -0.9011
  852THF     C814071   0.108   1.619   1.498 -0.1923 -0.4267 -0.3170
  852THF     C914072   0.006   1.652   1.387  0.3864 -0.3478 -0.7806
  852THF    H1014073   0.186   1.695   1.502 -0.7528  0.2381 -1.4568
  852THF    H1114074   0.063   1.616   1.597  1.7743 -1.3643  0.6223
  852THF    H1214075  -0.089   1.607   1.415  0.0700 -0.6459 -2.2734
  852THF    H1314076  -0.011   1.760   1.379  1.2242 -0.1092  0.3508
  853THF     O114077   3.608   0.095   3.272  0.0142  0.0251 -0.0338
  853THF     C214078   3.583   0.036   3.399  0.9027  0.0534 -0.2461
  853THF     C314079   3.746   0.103   3.252  0.2297  0.1285  0.1255
  853THF     H414080   3.488  -0.018   3.407  0.1717  1.2201 -0.8121
  853THF     H514081   3.581   0.113   3.476  0.4540  1.2130 -1.3716
  853THF     H614082   3.766   0.119   3.146 -0.2245 -0.1975 -0.0126
  853THF     H714083   3.789   0.188   3.306  0.5718  0.9860 -1.4411
  853THF     C814084   3.789  -0.038   3.302  0.2233 -0.2956  0.1625
  853THF     C914085   3.707  -0.052   3.433  0.0930  0.5527  0.2295
  853THF    H1014086   3.896  -0.053   3.315  0.8471  1.8098 -1.8142
  853THF    H1114087   3.762  -0.120   3.236  0.3147 -0.2183  0.0286
  853THF    H1214088   3.675  -0.156   3.440  0.8683  0.3457  0.8446
  853THF    H1314089   3.759  -0.021   3.524  0.9146 -1.4298  0.4873
  854THF     O114090   2.876   5.423   5.093  0.3548  0.9546  0.1186
  854THF     C214091   2.855   5.331   4.988  0.0337  0.3084 -0.7309
  854THF     C314092   2.759   5.510   5.090  0.1849 -0.3460  0.4474
  854THF     H414093   2.927   5.249   4.998 -0.5357 -0.1701 -0.4580
  854THF     H514094   2.892   5.373   4.895  0.2053 -1.4009 -1.4790
  854THF     H614095   2.738   5.541   5.192  0.0038  0.4709  0.1715
  854THF     H714096   2.770   5.594   5.021  1.0440 -1.0266 -0.2685
  854THF     C814097   2.644   5.418   5.047  0.9015 -0.0920  0.4417
  854THF     C914098   2.712   5.301   4.984 -0.0330  0.0434  1.0049
  854THF    H1014099   2.580   5.473   4.977  0.0141 -3.1832 -1.3478
  854THF    H1114100   2.573   5.383   5.121 -0.4336 -0.3799 -0.9296
  854THF    H1214101   2.680   5.213   5.041 -2.9581  0.1297 -0.3166
  854THF    H1314102   2.673   5.284   4.884  3.0251  2.6486 -0.8237
  855THF     O114103   1.642   0.397   5.461 -0.4152  0.3968  0.3581
  855THF     C214104   1.553   0.297   5.419  0.2898  0.0628 -0.3789
  855THF     C314105   1.770   0.378   5.396 -0.1915 -0.5852 -0.2573
  855THF     H414106   1.482   0.352   5.358  0.5990  2.5539  1.3626
  855THF     H514107   1.503   0.241   5.498 -0.8921  1.0436 -0.4064
  855THF     H614108   1.757   0.429   5.300 -1.5953 -0.4901 -0.0462
  855THF     H714109   1.852   0.432   5.443  0.2543 -3.2449  2.3047
  855THF     C814110   1.780   0.231   5.371  0.0772 -0.3395 -0.1455
  855THF     C914111   1.635   0.195   5.337 -0.6567  0.0664  0.0937
  855THF    H1014112   1.806   0.184   5.467 -0.4558  2.0759  1.2609
  855THF    H1114113   1.854   0.205   5.296 -1.1855  2.8474 -2.7221
  855THF    H1214114   1.618   0.211   5.231 -0.3514  1.5976  0.2470
  855THF    H1314115   1.620   0.089   5.359  0.3733 -0.2086 -0.4857
  856THF     O114116   1.771   3.220   2.134  0.0388  0.2274 -0.0712
  856THF     C214117   1.898   3.277   2.181  0.5383 -0.0512  0.3584
  856THF     C314118   1.662   3.286   2.200 -0.2141 -0.1163 -0.1321
  856THF     H414119   1.976   3.248   2.111 -1.7236 -1.1207 -1.8563
  856THF     H514120   1.938   3.233   2.273 -0.1096  0.1365  0.7367
  856THF     H614121   1.593   3.300   2.118  1.2006  0.1038 -1.3291
  856THF     H714122   1.613   3.234   2.283  0.8559 -1.0473 -0.0495
  856THF     C814123   1.716   3.416   2.254 -0.5852 -0.1850  0.0399
  856THF     C914124   1.861   3.424   2.209 -0.0988  0.1005 -0.3817
  856THF    H1014125   1.721   3.415   2.363  1.1814 -0.4501 -0.0128
  856THF    H1114126   1.670   3.508   2.219  1.3670  0.9506  0.3140
  856THF    H1214127   1.868   3.468   2.110 -1.9346 -3.0111 -2.0669
  856THF    H1314128   1.940   3.474   2.265  0.8674  0.6802 -2.1665
  857THF     O114129   2.617   0.012   2.919 -0.4841  0.0686 -0.0361
  857THF     C214130   2.631   0.126   2.834 -0.3564 -0.6672 -0.0427
  857THF     C314131   2.743  -0.053   2.916 -0.2878  0.0574  0.1423
  857THF     H414132   2.547   0.194   2.821 -0.7735 -1.3633 -1.0303
  857THF     H514133   2.643   0.093   2.731  0.7222  0.5700 -0.3448
  857THF     H614134   2.760  -0.100   3.013  1.7089  0.3068 -0.0377
  857THF     H714135   2.743  -0.126   2.835  2.3340 -0.3873  0.4428
  857THF     C814136   2.849   0.058   2.903  0.4358  0.6743 -0.1604
  857THF     C914137   2.763   0.186   2.889 -0.6451 -0.0341 -0.1539
  857THF    H1014138   2.892   0.050   2.803  0.2959  0.3825 -0.2001
  857THF    H1114139   2.933   0.048   2.971  1.3745 -0.9885 -1.4634
  857THF    H1214140   2.746   0.228   2.988  0.1956 -1.9140  0.8468
  857THF    H1314141   2.808   0.264   2.827 -2.8996  0.6027 -1.0916
  858THF     O114142   3.466   0.865   1.229 -0.3330  0.3606  0.1211
  858THF     C214143   3.468   0.779   1.343 -0.7289 -0.7626 -0.2918
  858THF     C314144   3.361   0.816   1.133 -0.6636  0.2399 -1.3136
  858THF     H414145   3.457   0.843   1.431  1.0938 -0.1497 -0.4769
  858THF     H514146   3.565   0.734   1.361 -1.1318 -0.6382  2.8021
  858THF     H614147   3.314   0.892   1.071 -1.8075 -1.0131 -2.0625
  858THF     H714148   3.411   0.745   1.068  1.7131  0.0012  0.6422
  858THF     C814149   3.264   0.735   1.214  0.6626  0.7787 -0.1987
  858THF     C914150   3.361   0.675   1.324  0.4915  0.4458  0.5314
  858THF    H1014151   3.213   0.663   1.150 -0.9420 -0.4123  2.2606
  858THF    H1114152   3.180   0.790   1.258 -0.9791 -0.5264 -1.5618
  858THF    H1214153   3.312   0.645   1.416 -0.8129 -0.7295 -0.4969
  858THF    H1314154   3.412   0.590   1.279  0.0912  0.4336  0.0947
  859THF     O114155   1.221   0.080   3.699  0.2696 -0.5424  0.4480
  859THF     C214156   1.205  -0.039   3.631  0.2166  0.0365  0.6301
  859THF     C314157   1.102   0.130   3.754  0.0232  0.1567 -0.3912
  859THF     H414158   1.208  -0.123   3.700 -1.4148  1.1703  2.1662
  859THF     H514159   1.282  -0.038   3.554  1.2520  1.9043  1.6231
  859THF     H614160   1.096   0.098   3.858 -0.0281 -2.0644 -1.0437
  859THF     H714161   1.106   0.239   3.742  0.9732  0.2312  0.4456
  859THF     C814162   0.992   0.067   3.668  0.0660 -0.3922 -0.6141
  859THF     C914163   1.069  -0.008   3.565 -0.0582 -0.3092  0.0655
  859THF    H1014164   0.928   0.136   3.613 -0.3647 -0.4294 -0.1593
  859THF    H1114165   0.943  -0.005   3.733  0.9168  0.0367  0.5163
  859THF    H1214166   1.011  -0.093   3.528 -0.6053  1.0652 -2.4297
  859THF    H1314167   1.083   0.055   3.478 -1.1291  0.6467  0.5588
  860THF     O114168   2.978   2.962   3.921 -0.0921 -0.1320  0.3361
  860THF     C214169   2.944   2.914   4.053 -0.5095  0.0724 -0.1266
  860THF     C314170   3.082   2.874   3.872 -0.3347 -0.5677  0.0465
  860THF     H414171   2.866   2.839   4.039 -2.0086  0.8068  3.2603
  860THF     H514172   2.898   2.992   4.114 -2.0002  0.4608 -1.6824
  860THF     H614173   3.042   2.797   3.806  0.2803  0.9699 -2.2449
  860THF     H714174   3.140   2.928   3.797  0.3825  0.2687  1.1688
  860THF     C814175   3.166   2.833   3.994 -0.1989  0.2384  0.0654
  860THF     C914176   3.068   2.845   4.111 -0.3745 -0.4053  0.4526
  860THF    H1014177   3.255   2.895   4.003  0.5805 -0.9402  0.6569
  860THF    H1114178   3.211   2.734   3.988 -0.7166  0.0199 -0.3669
  860THF    H1214179   3.035   2.749   4.151 -0.5238 -0.3291  0.5149
  860THF    H1314180   3.111   2.904   4.192 -0.0339  1.3562 -0.9561
  861THF     O114181   5.442   4.419   1.685  0.5591 -0.0824 -0.0117
  861THF     C214182   5.428   4.468   1.811 -0.2112  0.0182  0.0114
  861THF     C314183   5.470   4.276   1.690 -0.5462 -0.7275  0.1206
  861THF     H414184   5.350   4.544   1.815 -0.0083  0.1861  2.6409
  861THF     H514185   5.516   4.531   1.822 -1.1873  1.2441  1.1212
  861THF     H614186   5.374   4.228   1.671 -0.8741 -0.5998  1.3529
  861THF     H714187   5.553   4.248   1.625 -0.7732  3.3070 -2.2884
  861THF     C814188   5.501   4.253   1.843  0.1842 -0.2143 -0.5188
  861THF     C914189   5.410   4.349   1.902  0.4358 -0.1789  0.1827
  861THF    H1014190   5.599   4.280   1.884 -0.8279  2.3215  0.3712
  861THF    H1114191   5.472   4.152   1.872 -1.2976  0.2418 -0.3812
  861THF    H1214192   5.309   4.308   1.903  0.0880  0.5878 -1.2683
  861THF    H1314193   5.423   4.368   2.009  1.4035 -3.0356  0.6380
  862THF     O114194   2.279   4.542   3.241 -0.4720  0.3938  0.0048
  862THF     C214195   2.231   4.526   3.370  0.2764 -0.3700  0.1586
  862THF     C314196   2.276   4.687   3.227  0.1241  0.3838 -0.0193
  862THF     H414197   2.310   4.500   3.441 -0.3125 -2.7369  0.0564
  862THF     H514198   2.156   4.447   3.381  0.5351 -0.4852  1.1242
  862THF     H614199   2.369   4.736   3.258 -0.0075 -1.1060  3.1087
  862THF     H714200   2.260   4.706   3.121  1.0051 -0.4584 -0.3192
  862THF     C814201   2.150   4.736   3.300  0.3865  0.5046 -0.1130
  862THF     C914202   2.166   4.652   3.421 -0.3418 -0.1519 -0.3787
  862THF    H1014203   2.057   4.708   3.252 -0.9754 -1.1337  3.1899
  862THF    H1114204   2.137   4.843   3.318  2.7892  1.1094 -1.4828
  862THF    H1214205   2.241   4.690   3.491 -0.9499 -1.2525  0.9261
  862THF    H1314206   2.075   4.644   3.480  0.2307 -0.5608  0.4707
  863THF     O114207   3.135   1.814   2.217 -0.0550  0.1164 -0.2375
  863THF     C214208   3.007   1.826   2.146 -0.1457 -0.6325  0.6118
  863THF     C314209   3.140   1.688   2.265 -0.5157 -0.2514  0.1240
  863THF     H414210   3.015   1.908   2.074  0.0339 -1.7652 -0.7058
  863THF     H514211   2.923   1.828   2.215 -1.2976  0.2005 -0.7459
  863THF     H614212   3.243   1.663   2.289 -0.4453  0.6859  0.8627
  863THF     H714213   3.081   1.665   2.354 -1.6904 -0.6216 -0.7320
  863THF     C814214   3.073   1.599   2.159  0.6418  0.3952  0.0344
  863THF     C914215   3.015   1.699   2.057  0.0350 -0.1445  0.8906
  863THF    H1014216   2.997   1.536   2.205  1.0830 -0.4160 -0.3279
  863THF    H1114217   3.155   1.538   2.120 -0.3257 -1.1756  0.3550
  863THF    H1214218   3.083   1.720   1.975  0.1856  0.0440  1.0626
  863THF    H1314219   2.924   1.655   2.016  1.1510 -0.8614 -0.9227
  864THF     O114220   2.981   3.672   0.344  0.6193  0.2403 -0.5063
  864THF     C214221   3.094   3.718   0.274 -0.1143  1.1250 -0.2019
  864THF     C314222   2.941   3.542   0.307 -0.0191 -0.3886  0.3779
  864THF     H414223   3.171   3.705   0.350  1.4785 -2.1312 -2.1289
  864THF     H514224   3.095   3.822   0.242  0.1541  1.6488  1.3968
  864THF     H614225   2.899   3.479   0.386 -2.8234  0.9947  0.1200
  864THF     H714226   2.864   3.552   0.231  1.1430 -2.5369 -1.1930
  864THF     C814227   3.061   3.489   0.227 -0.2195  0.0797 -0.3779
  864THF     C914228   3.111   3.613   0.166  0.0776 -0.8664  0.0299
  864THF    H1014229   3.035   3.408   0.159 -3.0628  0.2254  0.4238
  864THF    H1114230   3.124   3.441   0.301 -1.0604 -0.9958 -0.3374
  864THF    H1214231   3.212   3.601   0.125 -0.4078  1.3998 -2.0764
  864THF    H1314232   3.049   3.650   0.085 -1.8115 -2.7296  0.5310
  865THF     O114233   0.386   2.604   2.302  0.0458  0.3119 -0.6402
  865THF     C214234   0.463   2.506   2.242  0.6171  0.1947  0.1814
  865THF     C314235   0.253   2.562   2.340  0.2897  0.9524  0.1912
  865THF     H414236   0.570   2.514   2.259  0.8209  0.5494 -1.1753
  865THF     H514237   0.445   2.524   2.136  0.5751 -0.2903  0.1036
  865THF     H614238   0.207   2.627   2.415 -0.1061  0.4550  0.3832
  865THF     H714239   0.185   2.555   2.255 -0.8581 -1.0574  1.1974
  865THF     C814240   0.292   2.423   2.390 -0.2528 -0.0246 -0.4784
  865THF     C914241   0.405   2.379   2.295  0.7272 -0.3287  0.2973
  865THF    H1014242   0.212   2.350   2.394  0.6203 -0.9708  2.5611
  865THF    H1114243   0.341   2.414   2.487  0.5614  0.3975 -0.8358
  865THF    H1214244   0.478   2.315   2.345  0.9913 -0.7175 -0.5576
  865THF    H1314245   0.363   2.311   2.220  0.1188  0.3250  0.0380
  866THF     O114246   1.084   3.797   2.309  0.2242  0.9428  0.0667
  866THF     C214247   1.113   3.685   2.386  1.0276 -0.6074 -0.2769
  866THF     C314248   0.972   3.772   2.218 -0.0470  0.6749 -0.5817
  866THF     H414249   1.137   3.713   2.489  1.0578  1.8186 -0.8641
  866THF     H514250   1.199   3.629   2.350  0.8804 -0.6706 -0.5315
  866THF     H614251   0.899   3.853   2.229 -1.0911 -0.5912  4.0014
  866THF     H714252   1.000   3.792   2.115  1.7945  1.1479 -0.0318
  866THF     C814253   0.940   3.628   2.230  0.0036 -0.2467 -0.5456
  866THF     C914254   0.983   3.600   2.376  0.6279 -0.0203  0.2327
  866THF    H1014255   0.989   3.557   2.164 -0.1284  0.5101 -1.4767
  866THF    H1114256   0.838   3.597   2.205 -0.1244  0.8451 -1.4432
  866THF    H1214257   0.902   3.636   2.439 -1.3341 -1.3431 -1.4012
  866THF    H1314258   0.989   3.496   2.411 -0.4486 -0.2038 -0.1041
  867THF     O114259   0.044   1.696   0.391 -0.7924 -0.4445  0.1269
  867THF     C214260  -0.068   1.617   0.378 -0.9971  0.2824  0.0650
  867THF     C314261   0.039   1.820   0.310 -0.6114 -0.2792 -0.1594
  867THF     H414262  -0.121   1.616   0.473 -1.2514 -0.5136 -0.0745
  867THF     H514263  -0.038   1.514   0.358 -0.7812  0.2998  0.3057
  867THF     H614264   0.039   1.916   0.361 -2.9359 -0.1848 -0.2151
  867THF     H714265   0.120   1.815   0.237  2.7368 -1.7556  3.2973
  867THF     C814266  -0.099   1.815   0.242  0.4159 -0.1867  0.3116
  867THF     C914267  -0.139   1.671   0.252  0.0628  0.1351 -0.2132
  867THF    H1014268  -0.090   1.857   0.142 -0.7860  1.1821  0.7410
  867THF    H1114269  -0.173   1.876   0.293  0.8624  0.5540  0.0836
  867THF    H1214270  -0.247   1.657   0.249 -0.0537  0.3632  1.6112
  867THF    H1314271  -0.092   1.617   0.170 -1.1882 -1.3119 -0.0247
  868THF     O114272   2.346   0.637   0.362  0.1539  0.3309  0.3839
  868THF     C214273   2.246   0.740   0.365 -0.0627 -0.7140 -0.6151
  868THF     C314274   2.293   0.531   0.276  0.1740 -0.3014  0.3762
  868THF     H414275   2.286   0.823   0.308 -1.9015 -0.5856 -1.7885
  868THF     H514276   2.237   0.765   0.471 -2.0541 -1.7357 -0.4945
  868THF     H614277   2.325   0.560   0.176 -2.2440 -0.0645 -0.3850
  868THF     H714278   2.322   0.426   0.281 -0.2878 -0.4831 -0.6475
  868THF     C814279   2.137   0.537   0.300  0.4019  0.5871 -0.0399
  868THF     C914280   2.115   0.688   0.313 -0.2491  0.0808  0.2009
  868THF    H1014281   2.106   0.482   0.389 -1.6665 -0.0876 -1.1071
  868THF    H1114282   2.087   0.505   0.209  0.8679 -0.0436 -0.0792
  868THF    H1214283   2.085   0.735   0.220 -0.0590 -0.6714 -0.2510
  868THF    H1314284   2.030   0.707   0.379 -1.6677  1.8107 -1.9658
  869THF     O114285   4.276   0.504   3.824 -0.4579 -0.5491 -0.0864
  869THF     C214286   4.291   0.438   3.695  0.2502 -0.3256 -0.3780
  869THF     C314287   4.193   0.429   3.907 -0.0725  0.0921  0.1878
  869THF     H414288   4.372   0.473   3.631  0.5404  1.3351  0.8107
  869THF     H514289   4.206   0.453   3.630 -1.0462 -4.1110  0.2347
  869THF     H614290   4.223   0.441   4.011 -1.2437 -0.8615  0.6493
  869THF     H714291   4.090   0.461   3.893 -0.7269 -2.3155 -0.8581
  869THF     C814292   4.217   0.292   3.861  0.2622  0.6456 -0.6587
  869THF     C914293   4.298   0.292   3.731  0.0921 -0.0963 -0.2074
  869THF    H1014294   4.133   0.225   3.841  0.4354 -0.8641  2.9224
  869THF    H1114295   4.270   0.236   3.938 -1.2014 -2.5675 -1.7996
  869THF    H1214296   4.396   0.248   3.747  1.0418  1.9471 -0.0028
  869THF    H1314297   4.242   0.236   3.657 -0.4396 -0.5101  0.4982
  870THF     O114298   2.290   0.706   1.243  0.2703 -1.1098  0.0314
  870THF     C214299   2.320   0.671   1.109 -0.5691 -0.0185  0.5566
  870THF     C314300   2.408   0.701   1.320  0.3467 -0.3228 -0.2044
  870THF     H414301   2.374   0.752   1.060  1.0210 -0.6570  1.1745
  870THF     H514302   2.240   0.655   1.038  0.8843  1.7303 -1.6087
  870THF     H614303   2.461   0.793   1.299  0.3780  0.0558  1.4378
  870THF     H714304   2.397   0.692   1.428  0.7385 -1.5358 -0.2479
  870THF     C814305   2.493   0.592   1.254  0.3266  0.1876  0.6073
  870THF     C914306   2.413   0.554   1.140 -0.5328  0.6593 -0.0736
  870THF    H1014307   2.513   0.509   1.322 -1.6625 -0.3226  0.6376
  870THF    H1114308   2.591   0.634   1.232  0.0398  0.4276 -0.2445
  870THF    H1214309   2.482   0.526   1.061 -0.3898  0.1594  0.2258
  870THF    H1314310   2.351   0.466   1.151  0.4099 -0.0460 -0.3211
  871THF     O114311   1.157   3.177   5.466 -0.0320  0.2701 -0.1088
  871THF     C214312   1.163   3.291   5.376 -0.0778  0.3952 -0.1374
  871THF     C314313   1.209   3.068   5.385 -0.8711 -1.0098 -0.0688
  871THF     H414314   1.163   3.385   5.432  0.0487  1.0141 -1.1533
  871THF     H514315   1.072   3.283   5.316 -1.1935 -0.9185  1.6410
  871THF     H614316   1.247   2.989   5.450  0.4251 -0.5104 -0.1914
  871THF     H714317   1.129   3.021   5.327  0.0380 -1.5356 -0.9303
  871THF     C814318   1.329   3.130   5.310 -0.0694 -0.4378  0.2476
  871THF     C914319   1.293   3.279   5.298  0.0462  0.4890 -0.0126
  871THF    H1014320   1.344   3.092   5.208 -1.5178  0.5137 -0.3594
  871THF    H1114321   1.423   3.139   5.364 -0.9601  1.4253  1.5700
  871THF    H1214322   1.364   3.342   5.351  0.7121 -0.3654  0.1329
  871THF    H1314323   1.280   3.308   5.194  0.8128 -0.4606 -0.3883
  872THF     O114324   5.107   3.574   5.294 -0.2218  0.1057  0.4146
  872THF     C214325   5.233   3.540   5.339  0.1040  0.7004  0.1714
  872THF     C314326   5.101   3.717   5.311  0.1750  0.0454  0.2469
  872THF     H414327   5.266   3.444   5.300  0.1009  0.6702  0.2447
  872THF     H514328   5.231   3.539   5.448  1.0925  1.3190  0.1991
  872THF     H614329   5.042   3.771   5.237  0.7571  1.0769  0.5108
  872THF     H714330   5.051   3.743   5.404 -1.4184  0.3462 -0.6570
  872THF     C814331   5.244   3.774   5.297 -0.8316  0.0089 -0.0826
  872THF     C914332   5.329   3.643   5.285  0.0570  0.2117 -0.3571
  872THF    H1014333   5.272   3.829   5.387  0.5629  0.3158 -0.6809
  872THF    H1114334   5.251   3.835   5.208  0.0127 -1.1027 -0.8127
  872THF    H1214335   5.347   3.626   5.179  0.5478  0.4328 -0.3162
  872THF    H1314336   5.423   3.664   5.336 -0.0813  3.1246 -1.1136
  873THF     O114337   3.647   4.579   4.116  0.3832 -0.1622  0.5167
  873THF     C214338   3.685   4.447   4.165  0.4985  0.1335  0.1705
  873THF     C314339   3.507   4.577   4.106 -0.1470 -0.1616 -0.2117
  873THF     H414340   3.784   4.464   4.206  0.4823  1.7939 -0.4112
  873THF     H514341   3.690   4.376   4.082  1.0880  1.1036 -0.6496
  873THF     H614342   3.457   4.672   4.086  1.0360  0.5751  0.2003
  873THF     H714343   3.477   4.514   4.022  1.1385 -0.2870 -0.5972
  873THF     C814344   3.475   4.520   4.247 -0.6606 -0.1075 -0.1552
  873THF     C914345   3.581   4.416   4.270 -0.2992 -0.7604  1.0109
  873THF    H1014346   3.375   4.476   4.244 -1.6578  1.9691  0.6591
  873THF    H1114347   3.479   4.596   4.325  0.0177 -1.2768  0.9984
  873THF    H1214348   3.608   4.436   4.374 -0.4527 -0.8236  1.0630
  873THF    H1314349   3.554   4.311   4.267  1.0972 -1.1360 -1.4711
  874THF     O114350   2.635   2.326   3.004 -0.3336 -0.1976 -0.0786
  874THF     C214351   2.540   2.272   2.922  0.1990 -0.5995 -0.0269
  874THF     C314352   2.630   2.246   3.125  0.4656 -0.1300  0.6751
  874THF     H414353   2.563   2.296   2.818 -2.9647 -1.4922 -1.0510
  874THF     H514354   2.440   2.315   2.933 -0.1004 -0.6519 -2.0156
  874THF     H614355   2.714   2.264   3.192  1.1242 -1.0856  0.1387
  874THF     H714356   2.536   2.271   3.174 -1.2975  0.1442 -2.5628
  874THF     C814357   2.608   2.102   3.081 -0.3692 -0.1452  0.1384
  874THF     C914358   2.540   2.118   2.942 -0.1169  0.6073 -0.3830
  874THF    H1014359   2.550   2.036   3.146 -0.0278 -0.4186  0.1685
  874THF    H1114360   2.700   2.048   3.059 -2.1546 -2.9649 -1.0170
  874THF    H1214361   2.591   2.056   2.869 -1.3388  0.9360 -1.5470
  874THF    H1314362   2.438   2.079   2.942  0.6762 -1.6001  0.0126
  875THF     O114363   3.819   3.684   2.248  0.0723 -0.0894  0.0265
  875THF     C214364   3.931   3.770   2.243  0.6921 -0.3942 -0.4085
  875THF     C314365   3.859   3.560   2.202 -0.0745 -0.2434  0.6804
  875THF     H414366   3.950   3.781   2.350  0.0494  0.2882 -0.3571
  875THF     H514367   3.905   3.859   2.185 -1.3367  0.6862  1.9783
  875THF     H614368   3.879   3.496   2.288 -0.3273 -2.9492 -1.1565
  875THF     H714369   3.783   3.511   2.142  0.4572  0.9604 -1.0624
  875THF     C814370   3.979   3.597   2.107 -0.7430  0.0266 -0.5657
  875THF     C914371   4.057   3.693   2.184 -0.3382  0.9100  0.1584
  875THF    H1014372   3.931   3.649   2.024 -1.2637  1.4894  0.6021
  875THF    H1114373   4.028   3.503   2.084 -2.5475 -1.3543  0.8613
  875THF    H1214374   4.109   3.651   2.269 -3.0425 -0.2452  1.3565
  875THF    H1314375   4.125   3.749   2.119  1.4324 -0.0133  1.1725
  876THF     O114376   1.605   2.080   4.875 -0.0022 -0.3157 -0.1568
  876THF     C214377   1.632   1.987   4.772 -0.1263  0.5368 -0.6103
  876THF     C314378   1.512   2.022   4.969 -0.4090 -0.6092 -0.2256
  876THF     H414379   1.741   1.986   4.770 -0.0094 -3.3433 -0.6487
  876THF     H514380   1.594   2.002   4.671 -0.3409 -1.3525 -0.8477
  876THF     H614381   1.504   2.068   5.067 -1.1017 -1.3891  0.1050
  876THF     H714382   1.414   2.043   4.925 -0.8720  0.4691  1.2108
  876THF     C814383   1.552   1.874   4.965  0.2899  0.1484  0.0298
  876THF     C914384   1.585   1.853   4.820 -0.6581  0.4273 -0.3463
  876THF    H1014385   1.467   1.813   4.995  1.3256 -0.8926  0.9798
  876THF    H1114386   1.640   1.859   5.028 -0.6570 -1.5046  1.0344
  876THF    H1214387   1.648   1.765   4.818 -1.5091 -0.3023  1.7346
  876THF    H1314388   1.496   1.833   4.760 -0.7502  1.2123 -0.4832
  877THF     O114389   2.367   2.660   4.281  0.2305 -0.1567  0.2156
  877THF     C214390   2.330   2.577   4.174 -0.6074  0.3448  0.0105
  877THF     C314391   2.440   2.775   4.247  0.0256 -0.3265  0.1008
  877THF     H414392   2.251   2.508   4.204  0.4929 -1.7153 -1.5438
  877THF     H514393   2.420   2.521   4.148  0.0713  1.5140 -0.2048
  877THF     H614394   2.388   2.862   4.289 -1.9260  0.9385 -4.2692
  877THF     H714395   2.546   2.779   4.272  0.1071  1.2675 -0.3638
  877THF     C814396   2.417   2.777   4.098 -0.0117  0.1539  0.5054
  877THF     C914397   2.308   2.683   4.067 -0.3806 -0.1854  0.6316
  877THF    H1014398   2.509   2.756   4.044 -0.3031  1.2856 -0.4807
  877THF    H1114399   2.402   2.884   4.080  0.1950  0.0945 -0.0282
  877THF    H1214400   2.214   2.738   4.077  0.3092  0.9162  1.1480
  877THF    H1314401   2.307   2.636   3.969  1.3666  1.5444 -0.2781
  878THF     O114402   5.009   0.004   1.222 -0.0276  1.0299  0.4934
  878THF     C214403   5.130   0.054   1.162  0.6858  0.9160  0.1872
  878THF     C314404   4.943  -0.081   1.127  0.0754 -0.3729 -0.5329
  878THF     H414405   5.207  -0.019   1.186 -0.6767 -0.7768 -0.3649
  878THF     H514406   5.161   0.148   1.207 -0.5699  0.5788  1.8694
  878THF     H614407   4.994  -0.176   1.113  1.7399  0.6052 -1.3520
  878THF     H714408   4.839  -0.099   1.155  0.7913 -0.3185  2.5536
  878THF     C814409   4.959   0.003   0.990 -0.1439 -0.2512  0.1222
  878THF     C914410   5.094   0.071   1.016 -0.1134  0.1362 -0.8208
  878THF    H1014411   4.877   0.074   0.981 -0.9938 -1.2343 -0.2125
  878THF    H1114412   4.972  -0.067   0.907 -0.7551  0.0471 -0.2302
  878THF    H1214413   5.168   0.026   0.950 -0.5657 -2.0987  0.0901
  878THF    H1314414   5.090   0.179   0.998 -0.0682  0.2355 -0.2695
  879THF     O114415   3.398   3.900   1.692  0.2366  0.3322 -0.1478
  879THF     C214416   3.282   3.865   1.613  0.3506 -0.4559 -0.6680
  879THF     C314417   3.418   4.042   1.683 -0.4745  0.0354 -0.2690
  879THF     H414418   3.233   3.777   1.656 -0.5759 -0.1181 -1.0050
  879THF     H514419   3.308   3.851   1.508 -0.3463  2.1747 -1.2575
  879THF     H614420   3.396   4.093   1.777  1.8173 -0.2124  0.4687
  879THF     H714421   3.519   4.054   1.645  1.5264 -1.1831  4.0581
  879THF     C814422   3.312   4.087   1.586  0.2085  0.1184 -0.4813
  879THF     C914423   3.200   3.987   1.597 -0.2998  0.3301  0.0975
  879THF    H1014424   3.346   4.085   1.483  1.7360  2.0053 -0.0706
  879THF    H1114425   3.279   4.190   1.603  0.8669  0.3168 -0.3595
  879THF    H1214426   3.136   4.004   1.683 -2.0207 -1.0823 -0.8372
  879THF    H1314427   3.136   3.987   1.509  1.9254 -0.2904 -1.6275
  880THF     O114428   1.838   4.728   2.340  0.2380 -0.2477  0.0914
  880THF     C214429   1.864   4.859   2.388 -0.6120 -0.1233  0.4243
  880THF     C314430   1.896   4.724   2.214 -0.3386 -0.0891  0.0151
  880THF     H414431   1.849   4.864   2.496  1.8205 -3.3421  1.0885
  880THF     H514432   1.804   4.935   2.339  1.2687  1.3188  0.2093
  880THF     H614433   1.886   4.629   2.161 -1.6773 -0.9870  1.7494
  880THF     H714434   1.849   4.805   2.158 -0.6481  1.8648  2.8779
  880THF     C814435   2.033   4.781   2.239 -0.3380 -0.1550 -0.0482
  880THF     C914436   2.006   4.891   2.342 -0.9067 -0.2945  0.7064
  880THF    H1014437   2.099   4.804   2.155  2.3890 -3.1140  1.0842
  880THF    H1114438   2.088   4.704   2.292 -0.2050  0.3275  0.5360
  880THF    H1214439   2.071   4.905   2.429 -1.5107  0.2998  1.0668
  880THF    H1314440   2.018   4.990   2.298  0.8205 -1.6702 -2.2342
  881THF     O114441   3.889   1.826   3.066  0.1187 -0.6548 -0.4764
  881THF     C214442   3.865   1.768   2.942 -0.1356  0.1571 -0.0591
  881THF     C314443   3.827   1.756   3.173 -0.7501  0.3541 -0.4549
  881THF     H414444   3.940   1.689   2.941 -0.9011 -0.6924  2.1635
  881THF     H514445   3.898   1.830   2.858  2.9284 -3.1515 -1.5732
  881THF     H614446   3.892   1.669   3.187 -0.8581  0.6035  2.0272
  881THF     H714447   3.820   1.821   3.260 -1.5596  0.3306 -0.4954
  881THF     C814448   3.700   1.705   3.103  0.1467  0.2866 -0.3362
  881THF     C914449   3.722   1.731   2.954  0.0144  0.0911  0.5927
  881THF    H1014450   3.610   1.759   3.132 -0.6724 -1.3306  0.2691
  881THF    H1114451   3.679   1.601   3.127  4.8094 -0.2172  2.8233
  881THF    H1214452   3.702   1.651   2.883 -0.7645  0.7597  0.0246
  881THF    H1314453   3.656   1.815   2.929  1.0423  0.3653 -1.3894
  882THF     O114454   0.118   1.363   3.916 -0.4917  0.0374  0.1233
  882THF     C214455   0.047   1.413   3.805  0.5971 -0.8412 -0.4208
  882THF     C314456   0.089   1.449   4.028 -0.3736 -0.0629 -0.4781
  882THF     H414457  -0.055   1.376   3.813 -0.6365  1.9909 -1.7605
  882THF     H514458   0.089   1.371   3.713 -1.4552 -2.6194 -0.6297
  882THF     H614459  -0.012   1.438   4.070  0.3365 -0.6488  1.1528
  882THF     H714460   0.157   1.435   4.111  1.8521  1.2131 -2.0050
  882THF     C814461   0.093   1.580   3.969 -0.3252  0.7716  0.0942
  882THF     C914462   0.053   1.565   3.824  0.1697  0.4143  0.2405
  882THF    H1014463   0.186   1.634   3.986  0.6066 -0.7764  0.0680
  882THF    H1114464   0.011   1.641   4.006  0.6612  2.7810 -0.8570
  882THF    H1214465  -0.037   1.614   3.787 -0.2601 -0.2196  0.4201
  882THF    H1314466   0.132   1.604   3.760  0.6192  0.5732  0.8882
  883THF     O114467   4.992   4.885   5.058 -1.0553  0.3874 -1.0138
  883THF     C214468   5.131   4.911   5.089  0.2200  0.5976  0.2271
  883THF     C314469   4.979   4.741   5.071  0.1345  0.3706  0.5947
  883THF     H414470   5.146   5.015   5.118  0.9961  0.5853 -0.1217
  883THF     H514471   5.185   4.885   4.999 -1.3482  0.7325 -0.7971
  883THF     H614472   4.878   4.700   5.075 -0.9963  2.8184 -0.6418
  883THF     H714473   5.025   4.694   4.984 -1.9907 -1.9291  0.6061
  883THF     C814474   5.069   4.701   5.191  0.0180  0.1006 -0.2340
  883THF     C914475   5.168   4.815   5.200  0.1349 -0.2215 -0.5620
  883THF    H1014476   5.124   4.611   5.161  1.3623  0.8587 -0.1281
  883THF    H1114477   5.015   4.690   5.285 -2.1652  0.7963 -1.3387
  883THF    H1214478   5.150   4.870   5.292  1.5093  1.1131 -1.0624
  883THF    H1314479   5.271   4.782   5.192  0.1616 -0.7435  1.4069
  884THF     O114480   3.967   0.644   1.555  0.5424  0.5722  0.3320
  884THF     C214481   3.842   0.705   1.562  0.1577  0.2466 -0.3489
  884THF     C314482   4.043   0.677   1.671  0.2523 -0.0732 -0.6274
  884THF     H414483   3.759   0.635   1.575 -1.0972  1.9640  1.4568
  884THF     H514484   3.827   0.770   1.477  1.4874  1.0799  0.0142
  884THF     H614485   4.100   0.589   1.701  0.1559 -0.0569 -0.3983
  884THF     H714486   4.117   0.754   1.653 -0.4449  0.9238  0.5951
  884THF     C814487   3.935   0.715   1.773 -0.5953  0.3339 -0.2139
  884THF     C914488   3.845   0.791   1.691  0.4073  0.7648  0.1527
  884THF    H1014489   3.964   0.774   1.861 -0.2504  0.2733 -0.2843
  884THF    H1114490   3.889   0.623   1.809 -0.6735  0.7675  0.8385
  884THF    H1214491   3.744   0.790   1.731  0.1705  0.5971 -0.4339
  884THF    H1314492   3.875   0.893   1.668  2.7386  0.1772  0.3436
  885THF     O114493   4.102   0.818   5.055  0.0830  0.3975  0.0837
  885THF     C214494   4.012   0.850   5.159  0.3740  0.8366  0.2195
  885THF     C314495   4.173   0.941   5.033  0.3473  0.2323 -0.7989
  885THF     H414496   4.058   0.846   5.258 -0.7234  0.7459  0.7388
  885THF     H514497   3.934   0.774   5.161  2.2867 -1.4227 -2.7319
  885THF     H614498   4.232   0.973   5.119 -1.3878  2.4948 -0.3710
  885THF     H714499   4.224   0.957   4.938 -1.4096  0.4623 -1.7331
  885THF     C814500   4.057   1.044   5.041  0.7923  0.3881 -1.2600
  885THF     C914501   3.951   0.984   5.132  0.6016 -0.0461  0.5634
  885THF    H1014502   4.007   1.065   4.946 -0.7899 -0.3724 -0.6194
  885THF    H1114503   4.086   1.137   5.089 -2.5087  0.6953  0.3773
  885THF    H1214504   3.918   1.043   5.217 -0.2147 -0.6160  0.6492
  885THF    H1314505   3.868   0.965   5.064  1.3599  0.8169 -0.6360
  886THF     O114506   1.165   5.210   4.138  0.3790 -0.4374  0.6667
  886THF     C214507   1.275   5.174   4.052  0.9902 -0.5514 -0.0213
  886THF     C314508   1.191   5.342   4.196 -0.1063  1.0283 -0.2943
  886THF     H414509   1.244   5.100   3.978  1.3310 -2.4507  1.6281
  886THF     H514510   1.359   5.134   4.109  0.0536 -2.2554  0.2239
  886THF     H614511   1.105   5.393   4.239  1.9255  2.9770  1.7304
  886THF     H714512   1.262   5.321   4.276 -0.4133  0.6620 -0.1128
  886THF     C814513   1.255   5.419   4.086 -0.1868  0.6851 -0.1154
  886THF     C914514   1.316   5.317   3.994 -0.2980  0.0456 -0.4193
  886THF    H1014515   1.331   5.483   4.129 -2.5415  2.0225  2.3811
  886THF    H1114516   1.173   5.471   4.037 -0.2321 -0.9461 -1.8885
  886THF    H1214517   1.299   5.333   3.887  2.8871  3.6621 -0.5888
  886THF    H1314518   1.423   5.321   4.010 -0.3484  0.1075 -0.0937
  887THF     O114519   0.547   0.764   4.647 -0.1870  0.0381 -0.5464
  887THF     C214520   0.433   0.703   4.704 -0.2777  0.2234  0.2165
  887THF     C314521   0.653   0.683   4.663  0.3309  1.0824  0.1841
  887THF     H414522   0.395   0.627   4.636 -0.7497 -0.5402  1.3047
  887THF     H514523   0.360   0.778   4.733 -0.1336  0.4193  0.0689
  887THF     H614524   0.633   0.592   4.607  0.2459 -0.1919  2.1819
  887THF     H714525   0.751   0.724   4.636  1.2668 -1.0910  0.1014
  887THF     C814526   0.641   0.631   4.807  0.1343  0.5942  0.0509
  887THF     C914527   0.488   0.637   4.823 -0.2759 -0.0467 -0.9183
  887THF    H1014528   0.681   0.698   4.883  0.5804 -0.5986  0.9022
  887THF    H1114529   0.687   0.532   4.812  0.2927  0.6215 -0.7892
  887THF    H1214530   0.447   0.536   4.828 -0.1721 -0.0350  0.5641
  887THF    H1314531   0.460   0.687   4.915 -2.6420 -2.5412 -0.1316
  888THF     O114532   2.459   4.917   0.156  0.1137  0.2352 -0.4668
  888THF     C214533   2.379   4.956   0.044 -0.2056  0.3914 -0.2595
  888THF     C314534   2.371   4.834   0.240  0.5950 -0.3126  0.0666
  888THF     H414535   2.381   4.886  -0.040 -0.5160 -0.2544  0.2666
  888THF     H514536   2.417   5.053   0.013  0.8442 -0.1411 -0.7169
  888THF     H614537   2.374   4.731   0.203 -2.2873 -0.2052 -0.7409
  888THF     H714538   2.399   4.827   0.345 -1.4443  0.0630  0.6714
  888THF     C814539   2.227   4.892   0.224 -0.1709 -0.1439 -0.5926
  888THF     C914540   2.237   4.979   0.100 -0.1154  0.5135 -0.5346
  888THF    H1014541   2.192   4.950   0.310  0.2163  0.4919 -0.8658
  888THF    H1114542   2.170   4.800   0.207 -0.8112 -0.5897  3.0762
  888THF    H1214543   2.157   4.975   0.026  0.2232  0.1166 -0.8795
  888THF    H1314544   2.232   5.083   0.130 -1.0913 -0.2521  2.3183
  889THF     O114545   2.689   3.660   2.440  0.2066 -0.6081  0.0073
  889THF     C214546   2.589   3.733   2.520  0.7040 -0.6091  0.9503
  889THF     C314547   2.801   3.743   2.418  0.2862 -0.4327 -0.2785
  889THF     H414548   2.538   3.658   2.581  1.5980 -1.2806  0.9014
  889THF     H514549   2.520   3.787   2.455  2.9861  0.4004 -0.7598
  889THF     H614550   2.889   3.695   2.376  0.1371  0.6425 -1.8757
  889THF     H714551   2.770   3.814   2.342 -0.3216 -0.8404 -0.4260
  889THF     C814552   2.818   3.818   2.551 -0.0361  0.7677  0.5171
  889THF     C914553   2.678   3.826   2.606  0.7263  0.7786 -0.1146
  889THF    H1014554   2.865   3.916   2.536 -1.1970  1.2038 -0.4096
  889THF    H1114555   2.884   3.759   2.616  0.3330  1.3349  0.6654
  889THF    H1214556   2.665   3.796   2.710  0.3894  2.4395  0.3677
  889THF    H1314557   2.638   3.928   2.608  3.5926  1.9707  1.8771
  890THF     O114558   5.297   3.369   3.373 -1.0009  0.2317  0.7683
  890THF     C214559   5.261   3.454   3.480 -0.4721  0.3933  0.0894
  890THF     C314560   5.433   3.397   3.346  0.0347 -0.0337 -0.6877
  890THF     H414561   5.166   3.425   3.524  0.0415 -1.5908  0.0121
  890THF     H514562   5.257   3.559   3.452  2.1726 -0.1086 -2.7772
  890THF     H614563   5.483   3.307   3.310  1.1609  1.0862 -2.0655
  890THF     H714564   5.435   3.472   3.267 -0.0106 -1.0937 -1.7422
  890THF     C814565   5.495   3.465   3.472 -0.1077 -0.0710  0.3417
  890THF     C914566   5.379   3.449   3.576 -0.6165 -0.1145 -0.5729
  890THF    H1014567   5.517   3.567   3.443  2.3114 -0.7984 -0.6229
  890THF    H1114568   5.594   3.426   3.496  0.1342  1.0514  1.2067
  890THF    H1214569   5.369   3.352   3.625 -0.0422  0.9281  1.7276
  890THF    H1314570   5.378   3.525   3.654  3.0680 -1.0963  0.6466
  891THF     O114571   5.203   1.394   1.897  0.9994 -0.4412 -0.4928
  891THF     C214572   5.313   1.334   1.961  0.2194  0.7043  0.9341
  891THF     C314573   5.257   1.499   1.822 -0.3602 -0.4739  0.4238
  891THF     H414574   5.279   1.236   1.993 -2.4652 -0.0450 -3.4719
  891THF     H514575   5.346   1.401   2.041  1.0857  0.5776  0.6952
  891THF     H614576   5.184   1.531   1.748  0.1330 -2.9344 -1.2444
  891THF     H714577   5.275   1.584   1.887  2.1950  0.2209 -1.0302
  891THF     C814578   5.392   1.456   1.766 -0.3535  0.1177 -0.0206
  891THF     C914579   5.424   1.328   1.850  0.3315  0.3979 -0.8304
  891THF    H1014580   5.464   1.537   1.773 -1.9700  2.1481 -3.7480
  891THF    H1114581   5.388   1.445   1.657  0.7966  0.7571 -0.1418
  891THF    H1214582   5.412   1.240   1.787  0.2233  0.3245 -0.7086
  891THF    H1314583   5.523   1.328   1.896 -0.8952 -1.9692  2.1792
  892THF     O114584   2.862   1.803   2.499  0.2915 -0.0412  0.0896
  892THF     C214585   2.957   1.911   2.505 -0.3802  0.1742  0.0872
  892THF     C314586   2.732   1.857   2.537  0.1583 -0.0829 -0.4074
  892THF     H414587   2.973   1.971   2.415 -0.0877  0.5120  0.3595
  892THF     H514588   3.055   1.863   2.512 -0.8345 -0.8925 -0.6755
  892THF     H614589   2.679   1.911   2.459  0.1039  1.0943  0.4186
  892THF     H714590   2.664   1.782   2.578  2.1953 -1.2970  0.9216
  892THF     C814591   2.767   1.957   2.651  0.2164  0.5318  0.3717
  892THF     C914592   2.911   1.997   2.617 -0.0212  0.1721  0.3203
  892THF    H1014593   2.762   1.897   2.742  0.0406 -2.0447 -1.2626
  892THF    H1114594   2.699   2.042   2.651  3.2853  3.2239  1.6664
  892THF    H1214595   2.904   2.100   2.583  0.4806  0.1624  0.1842
  892THF    H1314596   2.970   1.981   2.708  1.6067 -1.1465 -0.9067
  893THF     O114597   5.227   0.107   0.666 -0.1318  0.0312 -0.2851
  893THF     C214598   5.356   0.042   0.682 -0.1075 -0.7749 -0.4927
  893THF     C314599   5.144   0.025   0.583 -0.2427 -0.2578 -0.4673
  893THF     H414600   5.411   0.087   0.764  3.0749 -1.7938 -1.9091
  893THF     H514601   5.417   0.074   0.598  1.7484 -0.4290  0.9432
  893THF     H614602   5.040   0.046   0.606  0.2808  1.9813  0.0607
  893THF     H714603   5.167   0.037   0.477 -1.5761  0.5081 -0.6832
  893THF     C814604   5.178  -0.115   0.638 -0.1657  0.3310 -0.6551
  893THF     C914605   5.325  -0.107   0.688  0.3905  0.3329  0.3825
  893THF    H1014606   5.152  -0.191   0.565 -0.9916  0.8890 -0.9505
  893THF    H1114607   5.111  -0.129   0.723 -2.8771 -1.9750 -3.0033
  893THF    H1214608   5.333  -0.145   0.789  2.7755  0.3258  0.2608
  893THF    H1314609   5.392  -0.161   0.621  1.0215  1.6208 -0.0701
  894THF     O114610   1.107   2.495   2.357  0.3614 -0.3051  1.0287
  894THF     C214611   1.043   2.611   2.306 -0.1362  0.0107 -0.4143
  894THF     C314612   1.139   2.511   2.492  0.3289 -0.0994 -0.1259
  894THF     H414613   0.939   2.582   2.324  0.3189 -1.1692  0.4924
  894THF     H514614   1.066   2.621   2.200  1.4365  1.7159  0.0459
  894THF     H614615   1.093   2.434   2.553  1.5008  0.8222  2.0254
  894THF     H714616   1.246   2.510   2.512  0.2415 -0.8575  0.3463
  894THF     C814617   1.096   2.660   2.523 -0.0957  0.0532 -0.8298
  894THF     C914618   1.085   2.729   2.388  0.1319 -0.1518 -1.0085
  894THF    H1014619   1.160   2.707   2.597  0.9168 -1.8965 -0.3903
  894THF    H1114620   1.001   2.655   2.576 -0.6653 -1.4437 -1.9060
  894THF    H1214621   1.007   2.804   2.401  0.2177 -0.3525  0.8626
  894THF    H1314622   1.187   2.764   2.372  1.6625 -2.6078  2.2679
  895THF     O114623   3.498   0.742   2.051  0.1878  0.1344  0.6117
  895THF     C214624   3.613   0.830   2.069  0.3550  0.4533  0.3837
  895THF     C314625   3.557   0.645   1.966 -0.3124 -0.2713  0.7845
  895THF     H414626   3.585   0.908   2.141  1.2428 -1.7039  3.2473
  895THF     H514627   3.635   0.885   1.977 -1.8053  0.4534 -0.1935
  895THF     H614628   3.490   0.561   1.948  0.3476 -0.2815 -2.0762
  895THF     H714629   3.587   0.675   1.866 -0.2900  0.2726  0.9480
  895THF     C814630   3.674   0.598   2.063  0.1716 -0.2967 -0.0909
  895THF     C914631   3.726   0.736   2.116  0.0702 -0.4300 -0.0861
  895THF    H1014632   3.749   0.530   2.022  1.2643 -0.9537  2.7837
  895THF    H1114633   3.634   0.542   2.147  0.1231 -0.4228 -0.1965
  895THF    H1214634   3.756   0.728   2.220  1.3247 -0.9710 -0.4755
  895THF    H1314635   3.814   0.767   2.060 -1.6572 -0.4697 -3.0460
  896THF     O114636   1.430   2.262   5.435  0.0496 -0.1282  0.0427
  896THF     C214637   1.469   2.130   5.464 -0.0769 -0.5558 -0.5913
  896THF     C314638   1.360   2.313   5.546  0.2710 -0.2028 -0.2870
  896THF     H414639   1.578   2.126   5.474  0.1088 -2.4234 -2.4754
  896THF     H514640   1.446   2.059   5.384 -2.6734 -0.5172  0.0282
  896THF     H614641   1.438   2.341   5.617  0.1184 -0.1727 -0.1312
  896THF     H714642   1.293   2.396   5.528 -1.3857 -1.3867  0.1019
  896THF     C814643   1.288   2.189   5.603 -0.3463 -0.1978  0.7597
  896THF     C914644   1.401   2.082   5.593 -0.5377  0.2392 -0.4241
  896THF    H1014645   1.203   2.173   5.537  1.3236  0.0651 -1.5699
  896THF    H1114646   1.254   2.211   5.704  2.1581  2.6959  1.1238
  896THF    H1214647   1.474   2.103   5.671 -0.1981  0.7359 -0.8674
  896THF    H1314648   1.375   1.977   5.587 -1.2226  0.4127 -0.6698
  897THF     O114649   3.619   4.860   4.454  0.1085  0.5201  0.1525
  897THF     C214650   3.565   4.788   4.563 -0.2623 -0.2820 -0.4016
  897THF     C314651   3.744   4.804   4.418 -0.4248 -0.4753 -0.2747
  897THF     H414652   3.467   4.740   4.557  0.1392 -1.2631  0.5982
  897THF     H514653   3.579   4.857   4.646 -0.2289 -1.5539  0.6815
  897THF     H614654   3.751   4.772   4.314  0.7383  1.1390 -0.7295
  897THF     H714655   3.816   4.884   4.431 -0.9174  0.0034 -0.4158
  897THF     C814656   3.763   4.678   4.500  0.1732 -0.3422 -0.1671
  897THF     C914657   3.645   4.666   4.591  0.6262 -0.4293  0.1008
  897THF    H1014658   3.852   4.696   4.561  1.4287 -0.6664 -1.8322
  897THF    H1114659   3.770   4.598   4.426 -1.0419  2.1837 -3.2465
  897THF    H1214660   3.598   4.572   4.562  3.3604 -1.1763 -2.4822
  897THF    H1314661   3.668   4.657   4.697 -1.0547 -2.2472  0.3685
  898THF     O114662   2.850   0.079   5.476  0.6594  0.4732 -0.7453
  898THF     C214663   2.842   0.130   5.607  0.1699  0.4991  0.4390
  898THF     C314664   2.983   0.087   5.440  0.4106  0.0063 -0.0563
  898THF     H414665   2.753   0.095   5.659 -0.7732  1.1509 -0.6942
  898THF     H514666   2.842   0.239   5.597 -1.6630  0.4870 -0.0391
  898THF     H614667   3.018   0.021   5.361  0.8537 -0.5450  0.5939
  898THF     H714668   3.024   0.187   5.425 -2.1251  1.2629  0.7513
  898THF     C814669   3.045   0.020   5.567 -0.1754 -0.6311 -0.1236
  898THF     C914670   2.967   0.080   5.682  0.3871 -0.0525  0.2190
  898THF    H1014671   3.151   0.044   5.571 -0.3156  0.3102 -1.3692
  898THF    H1114672   3.044  -0.087   5.549  1.5137 -0.5552 -0.8428
  898THF    H1214673   2.943   0.002   5.755  0.8024  0.0850  0.5046
  898THF    H1314674   3.013   0.170   5.722 -1.2806  1.6424 -1.4547
  899THF     O114675   2.697   0.681   5.114 -0.5532  0.3674 -1.1326
  899THF     C214676   2.830   0.685   5.167  0.3173 -0.1538  0.1218
  899THF     C314677   2.689   0.665   4.972 -0.0917 -0.9045  0.2115
  899THF     H414678   2.824   0.651   5.271  0.3626 -1.8687 -0.3938
  899THF     H514679   2.866   0.787   5.155 -1.0247  0.1788 -1.5641
  899THF     H614680   2.615   0.588   4.947  0.2733 -2.0406  2.3589
  899THF     H714681   2.659   0.751   4.913 -0.0608 -1.1092 -0.1066
  899THF     C814682   2.827   0.609   4.935 -0.4501 -0.0431  0.0860
  899THF     C914683   2.901   0.595   5.065  0.1449 -0.3379 -0.0240
  899THF    H1014684   2.874   0.671   4.858 -0.1702 -1.5697 -1.0149
  899THF    H1114685   2.803   0.513   4.890  1.2679 -0.4417 -0.0476
  899THF    H1214686   2.887   0.494   5.104  1.1135  0.1799  1.7596
  899THF    H1314687   3.006   0.619   5.047 -0.6825  2.9085 -1.0532
  900THF     O114688   0.528   1.096   0.486  0.3878 -0.1166 -0.5886
  900THF     C214689   0.633   1.179   0.444 -0.5983  0.2738  0.5713
  900THF     C314690   0.496   1.117   0.625  0.2135  0.5189  0.0524
  900THF     H414691   0.596   1.265   0.388  0.8514 -1.0855 -2.7342
  900THF     H514692   0.694   1.124   0.372 -1.2273  1.4440 -0.9059
  900THF     H614693   0.423   1.195   0.647  0.7658  0.6314  1.6666
  900THF     H714694   0.452   1.025   0.663  0.5530 -0.1137 -1.0410
  900THF     C814695   0.639   1.138   0.685 -0.3665  0.9442  0.2739
  900THF     C914696   0.713   1.214   0.570 -0.4516 -0.4172  0.6867
  900THF    H1014697   0.683   1.043   0.713 -0.8714  0.4615 -0.5502
  900THF    H1114698   0.635   1.195   0.778 -0.4688 -0.4626  1.1580
  900THF    H1214699   0.707   1.322   0.581  1.2974 -0.1252 -0.7251
  900THF    H1314700   0.817   1.184   0.556  0.3096  2.2284  0.2496
  901PF6-    P114701   4.268   1.875   0.741 -0.2457 -0.0732 -0.6095
  901PF6-    F214702   4.128   1.947   0.780 -0.4566 -0.5398 -0.3111
  901PF6-    F314703   4.411   1.806   0.701  0.3879  0.7375  0.0265
  901PF6-    F414704   4.275   1.821   0.893 -0.2278  0.3136  0.4086
  901PF6-    F514705   4.261   1.934   0.592 -0.4563  0.1717  0.1424
  901PF6-    F614706   4.352   2.005   0.785  0.0510  0.6551  0.3459
  901PF6-    F714707   4.181   1.743   0.698 -0.0390  0.3933  0.3744
  902PF6-    P114708   3.377   5.036   1.933 -0.0594 -0.0159  0.4461
  902PF6-    F214709   3.516   5.088   1.873  0.4439 -0.4086  0.6719
  902PF6-    F314710   3.238   4.986   1.990 -0.3717  0.2491  0.2211
  902PF6-    F414711   3.413   5.090   2.081 -0.2659  0.4656  0.2334
  902PF6-    F514712   3.341   4.983   1.785  0.2659 -0.1900  0.4714
  902PF6-    F614713   3.442   4.888   1.964 -0.0317  0.6075  0.1836
  902PF6-    F714714   3.313   5.183   1.903 -0.3248  0.5319  0.1180
  903PF6-    P114715   5.145   0.946   3.887  0.0981 -0.3726 -0.3402
  903PF6-    F214716   5.015   0.890   3.804 -0.5235 -0.0413 -0.3119
  903PF6-    F314717   5.268   1.004   3.970 -0.1732  0.0554 -0.1530
  903PF6-    F414718   5.220   0.983   3.750 -0.4550  0.8190 -0.2209
  903PF6-    F514719   5.078   0.905   4.028  0.2389 -0.0051 -0.0820
  903PF6-    F614720   5.212   0.799   3.884 -0.0826 -0.4853  0.3214
  903PF6-    F714721   5.068   1.090   3.892 -0.0288  0.0436  0.4859
  904PF6-    P114722   5.309   5.062   0.331  0.2758  0.5073  0.0330
  904PF6-    F214723   5.401   5.180   0.387  0.1004 -0.4190 -0.0230
  904PF6-    F314724   5.219   4.944   0.273 -0.1633  0.1844  0.2923
  904PF6-    F414725   5.385   4.958   0.433  0.2326  0.2643 -0.2718
  904PF6-    F514726   5.239   5.165   0.230  0.0834  0.2761  0.2487
  904PF6-    F614727   5.423   5.032   0.224 -0.0257  0.2476  0.0967
  904PF6-    F714728   5.198   5.093   0.438  0.2602 -0.2310 -0.0070
  905PF6-    P114729   1.302   2.064   0.596  0.0886 -0.2331 -0.1023
  905PF6-    F214730   1.190   2.101   0.699  0.2019 -0.6251 -0.6475
  905PF6-    F314731   1.424   2.037   0.499 -0.2537 -0.3980 -0.0588
  905PF6-    F414732   1.378   1.985   0.709 -0.5605  0.2825  0.1638
  905PF6-    F514733   1.223   2.148   0.488  0.0521 -0.6750  0.1337
  905PF6-    F614734   1.381   2.193   0.642  0.0998 -0.4149 -0.2075
  905PF6-    F714735   1.234   1.932   0.553 -0.2823 -0.2472 -0.2392
  906PF6-    P114736   2.257   2.529   1.028  0.0762  0.1982 -0.2227
  906PF6-    F214737   2.266   2.387   0.954 -0.0652  0.2716 -0.3208
  906PF6-    F314738   2.249   2.670   1.102  0.2696  0.8739 -0.2742
  906PF6-    F414739   2.352   2.478   1.148 -0.1224 -0.7617  0.4194
  906PF6-    F514740   2.162   2.583   0.915  0.0690 -0.0100 -0.0012
  906PF6-    F614741   2.135   2.476   1.113  0.7904  0.1873 -0.1931
  906PF6-    F714742   2.385   2.581   0.939 -0.2877 -0.3964  0.1253
  907PF6-    P114743   0.193   3.685   2.035  0.4565 -0.2606  0.0869
  907PF6-    F214744   0.225   3.843   2.028  0.3050 -0.2487  0.1479
  907PF6-    F314745   0.149   3.532   2.054  0.5709 -0.2749  0.0410
  907PF6-    F414746   0.120   3.716   2.177 -0.0632 -0.1477  0.6831
  907PF6-    F514747   0.275   3.656   1.896  0.1282  0.1356 -0.3725
  907PF6-    F614748   0.327   3.657   2.112 -0.1005 -0.2597 -0.4706
  907PF6-    F714749   0.055   3.718   1.955  0.3125  0.1312  0.0641
  908PF6-    P114750   3.915   5.169   2.684  0.7445  0.0938  0.2714
  908PF6-    F214751   3.925   5.307   2.610 -0.5302  0.1978  0.2183
  908PF6-    F314752   3.912   5.030   2.765 -0.1578  0.0746 -0.2478
  908PF6-    F414753   3.791   5.121   2.596 -0.0142  0.1882  0.0077
  908PF6-    F514754   4.033   5.228   2.781  0.0824  0.0647 -0.2449
  908PF6-    F614755   3.806   5.233   2.783  0.6510 -0.2257 -0.4359
  908PF6-    F714756   4.015   5.109   2.576  0.1801  0.0837  0.0532
  909PF6-    P114757   1.878   4.950   2.985 -0.5986 -0.4647  0.5393
  909PF6-    F214758   2.037   4.970   2.969  0.1544 -0.3088  0.1269
  909PF6-    F314759   1.719   4.933   3.022 -0.4199 -0.1111  0.1496
  909PF6-    F414760   1.868   4.892   2.832  0.2929 -0.0534 -0.7440
  909PF6-    F514761   1.890   5.011   3.128 -0.2116 -0.7041 -0.7232
  909PF6-    F614762   1.860   5.102   2.934  0.1930  0.1351  0.4729
  909PF6-    F714763   1.908   4.808   3.048 -0.5107  0.1829 -0.1623
  910PF6-    P114764   2.609   1.755   0.251  0.0250  0.1269  0.3605
  910PF6-    F214765   2.609   1.669   0.383 -0.2374 -0.1381  0.4718
  910PF6-    F314766   2.612   1.839   0.116  0.0376  0.4984  0.1875
  910PF6-    F414767   2.680   1.636   0.174 -0.4179 -0.3508  0.5321
  910PF6-    F514768   2.546   1.872   0.331 -0.1209  0.5284 -0.3586
  910PF6-    F614769   2.757   1.815   0.289 -0.2607 -0.6755 -0.9531
  910PF6-    F714770   2.465   1.695   0.214  0.3274  0.0497  0.3106
  911PF6-    P114771   3.428   2.965   3.394 -0.5003  0.2281 -0.3706
  911PF6-    F214772   3.310   2.915   3.483 -0.1601  0.8108 -0.6051
  911PF6-    F314773   3.548   3.011   3.303  0.3691  0.0642  0.4170
  911PF6-    F414774   3.398   3.117   3.441 -0.1233  0.4577 -0.4693
  911PF6-    F514775   3.462   2.817   3.355 -0.9460 -0.2760  0.9427
  911PF6-    F614776   3.325   2.972   3.271  0.2807 -0.1441 -0.9103
  911PF6-    F714777   3.525   2.949   3.524 -0.9977  0.2149  0.1154
  912PF6-    P114778   0.186   1.763   5.265  0.0876 -0.1218 -0.6655
  912PF6-    F214779   0.287   1.768   5.141  0.0204  0.5051  0.1616
  912PF6-    F314780   0.087   1.759   5.396  0.3978 -0.1970 -0.1904
  912PF6-    F414781   0.165   1.606   5.244  0.2031 -0.4242 -0.6085
  912PF6-    F514782   0.211   1.921   5.286  0.6176 -0.1592  0.2779
  912PF6-    F614783   0.068   1.789   5.168 -0.1771 -0.4846  0.0144
  912PF6-    F714784   0.306   1.737   5.367 -0.0020 -0.1219 -0.1484
  913PF6-    P114785   4.130   0.241   1.248 -0.1288  0.5108 -0.0885
  913PF6-    F214786   4.146   0.384   1.308  0.0245 -0.3146  0.0259
  913PF6-    F314787   4.115   0.091   1.191  0.2868 -0.1755 -0.1814
  913PF6-    F414788   4.279   0.217   1.287 -0.2409 -0.0884 -0.1744
  913PF6-    F514789   3.979   0.266   1.200  0.0149 -0.0506 -0.0131
  913PF6-    F614790   4.168   0.299   1.097  0.6161  0.8786 -0.1955
  913PF6-    F714791   4.083   0.189   1.393  0.5200 -0.4835 -0.4455
  914PF6-    P114792   2.641   2.073   5.001 -0.3148  0.3892  0.0896
  914PF6-    F214793   2.502   2.029   5.071 -0.6067 -0.1017 -0.1875
  914PF6-    F314794   2.775   2.130   4.929 -0.0500  0.0863  0.5573
  914PF6-    F414795   2.560   2.078   4.863  0.2135  0.2715  0.3341
  914PF6-    F514796   2.717   2.077   5.148  0.3786  0.4919 -0.0717
  914PF6-    F614797   2.686   1.923   4.975 -0.3845  0.0128  0.3394
  914PF6-    F714798   2.594   2.222   5.022 -0.3276 -0.1309  0.1843
  915PF6-    P114799   4.452   0.441   3.135 -0.0416  0.2212 -0.3575
  915PF6-    F214800   4.370   0.392   3.265 -0.6380  0.0067  0.3562
  915PF6-    F314801   4.534   0.477   3.004  0.0084 -0.2594  0.1126
  915PF6-    F414802   4.487   0.285   3.110 -0.7040 -0.2785 -0.0476
  915PF6-    F514803   4.416   0.593   3.162  0.0163 -0.4521  0.0404
  915PF6-    F614804   4.585   0.456   3.228 -0.1416 -0.3889  0.2671
  915PF6-    F714805   4.325   0.415   3.041  0.0811  0.0449 -0.0737
  916PF6-    P114806   2.702   4.588   0.293  0.1221 -0.1818  0.1454
  916PF6-    F214807   2.564   4.544   0.228 -0.0234  0.0170 -0.0324
  916PF6-    F314808   2.838   4.636   0.359 -0.1737  0.2512 -0.0818
  916PF6-    F414809   2.689   4.735   0.228  0.3489  0.1358 -0.3252
  916PF6-    F514810   2.723   4.442   0.351 -0.2384  0.0480  0.2051
  916PF6-    F614811   2.783   4.541   0.166 -0.6598 -0.1521 -0.2047
  916PF6-    F714812   2.626   4.630   0.425  0.3355 -0.2674 -0.3993
  917PF6-    P114813   1.244   4.304   1.461 -0.2889  0.2855  0.1075
  917PF6-    F214814   1.090   4.365   1.480  0.1659  0.7993 -0.2328
  917PF6-    F314815   1.398   4.253   1.448  0.3086 -0.2511  0.3240
  917PF6-    F414816   1.278   4.349   1.618  0.6063 -0.1280 -0.0099
  917PF6-    F514817   1.218   4.251   1.313 -0.7604  0.0883  0.6691
  917PF6-    F614818   1.291   4.443   1.406 -0.9099  0.2730  0.3498
  917PF6-    F714819   1.202   4.157   1.517  0.1427 -0.5638 -0.2187
  918PF6-    P114820   0.750   2.204   2.824 -0.0355 -0.1592  0.0359
  918PF6-    F214821   0.871   2.251   2.737 -0.2001  0.0862  0.3549
  918PF6-    F314822   0.628   2.159   2.914  0.4846  0.0841  0.2556
  918PF6-    F414823   0.753   2.055   2.760  0.6365  0.0165  0.0544
  918PF6-    F514824   0.747   2.351   2.885 -0.4930 -0.5494  0.7819
  918PF6-    F614825   0.651   2.249   2.710  0.7278  0.0704  0.2062
  918PF6-    F714826   0.854   2.154   2.938  0.6311  0.2912 -0.0805
  919PF6-    P114827   1.880   1.500   4.093 -0.3296  0.0248  0.3577
  919PF6-    F214828   2.015   1.414   4.085 -0.0144  0.3967 -0.3275
  919PF6-    F314829   1.741   1.581   4.102  1.0513  0.0824 -0.6858
  919PF6-    F414830   1.780   1.375   4.074  0.2637  0.4738  0.0518
  919PF6-    F514831   1.962   1.637   4.105  0.1280  0.5134 -0.2367
  919PF6-    F614832   1.877   1.517   3.933  0.0752 -0.0203 -0.5118
  919PF6-    F714833   1.878   1.490   4.255 -0.6151 -0.0622  0.2749
  920PF6-    P114834   3.019   1.287   0.242 -0.4378  0.2399 -0.1567
  920PF6-    F214835   3.022   1.428   0.164 -0.3506  0.1661  0.5574
  920PF6-    F314836   3.010   1.145   0.311  0.1073 -0.2602  0.1439
  920PF6-    F414837   3.125   1.337   0.349 -0.7758 -0.1549 -0.2821
  920PF6-    F514838   2.909   1.244   0.133  0.3960  0.7635  1.0906
  920PF6-    F614839   3.140   1.242   0.153  0.3762 -0.1012  0.1160
  920PF6-    F714840   2.907   1.353   0.326  0.3194  0.7057  0.3415
  921PF6-    P114841   2.182   4.418   1.094  0.2119  0.1113 -0.0876
  921PF6-    F214842   2.210   4.289   1.178 -0.4157  0.5554  0.2389
  921PF6-    F314843   2.165   4.554   1.012  0.0211 -0.0248  0.2665
  921PF6-    F414844   2.311   4.393   1.006 -0.5916 -0.1750 -0.1283
  921PF6-    F514845   2.052   4.458   1.184  0.4656 -0.0410 -0.5481
  921PF6-    F614846   2.275   4.498   1.206 -0.4753  0.0962 -0.3576
  921PF6-    F714847   2.088   4.345   0.987 -0.0733  0.0944  0.0466
  922PF6-    P114848   3.300   3.642   4.349 -0.3628  0.3495  0.3840
  922PF6-    F214849   3.457   3.614   4.315  0.0658  0.1327 -0.0255
  922PF6-    F314850   3.143   3.665   4.378  0.0009 -0.3009 -0.3010
  922PF6-    F414851   3.275   3.675   4.194 -0.0552  0.4993 -0.7086
  922PF6-    F514852   3.326   3.600   4.502  0.2473  0.4173  0.3535
  922PF6-    F614853   3.324   3.798   4.384  0.0710 -0.0412 -0.0091
  922PF6-    F714854   3.272   3.488   4.323 -0.2431  0.6607  0.1074
  923PF6-    P114855   1.242   4.306   3.644 -0.0462 -0.0573 -0.3452
  923PF6-    F214856   1.240   4.362   3.493  0.7259 -0.3098 -0.1637
  923PF6-    F314857   1.248   4.245   3.794 -0.0729 -0.5580  0.0804
  923PF6-    F414858   1.401   4.342   3.648  0.1136 -0.1024 -0.4480
  923PF6-    F514859   1.080   4.283   3.637 -0.6664  0.2715 -0.4458
  923PF6-    F614860   1.284   4.159   3.594 -0.3602  0.2956 -0.4803
  923PF6-    F714861   1.206   4.454   3.701 -0.3791 -0.4078 -0.3050
  924PF6-    P114862   1.441   0.898   4.903 -0.2356  0.0221  0.0170
  924PF6-    F214863   1.321   0.838   4.821 -0.1359 -0.3716  0.5156
  924PF6-    F314864   1.567   0.956   4.987  0.4801  0.2239  0.7110
  924PF6-    F414865   1.414   0.785   5.016 -0.3896  0.1569  0.1409
  924PF6-    F514866   1.462   1.011   4.795  0.1583 -0.5119  0.2440
  924PF6-    F614867   1.344   0.991   4.978  0.5388 -0.0094  0.6014
  924PF6-    F714868   1.540   0.801   4.832 -0.2228  0.3351 -0.3738
  925PF6-    P114869   5.205   0.489   2.519  0.3845 -0.2554 -0.0678
  925PF6-    F214870   5.119   0.625   2.550  0.5376 -0.6278  0.3838
  925PF6-    F314871   5.288   0.355   2.487  0.4478  0.0675 -0.2834
  925PF6-    F414872   5.162   0.431   2.666  0.2461  0.2903  0.3675
  925PF6-    F514873   5.250   0.544   2.369  0.4811 -0.3786 -0.4195
  925PF6-    F614874   5.333   0.554   2.582  0.1431 -0.6198 -0.2759
  925PF6-    F714875   5.071   0.427   2.453 -0.6930 -0.0395 -0.7197
  926PF6-    P114876   1.401   3.963   2.799 -0.2549  0.2925  0.1759
  926PF6-    F214877   1.295   3.998   2.915  0.1895 -0.1812 -0.1510
  926PF6-    F314878   1.500   3.942   2.680  0.0469 -0.2440  0.8661
  926PF6-    F414879   1.320   4.063   2.702  0.5465  0.3570  0.1312
  926PF6-    F514880   1.487   3.864   2.895 -0.1135 -0.3200  0.6579
  926PF6-    F614881   1.311   3.837   2.750 -0.3216 -0.0067  0.3042
  926PF6-    F714882   1.480   4.082   2.855 -0.2551 -0.6211 -0.2120
  927PF6-    P114883   1.917   5.372   4.005  0.1854 -0.3677 -0.1220
  927PF6-    F214884   1.851   5.354   3.858  0.1040 -0.4305 -0.4804
  927PF6-    F314885   1.984   5.387   4.146 -0.6391  0.2695 -0.1001
  927PF6-    F414886   2.061   5.361   3.940  0.1779 -0.1237  0.1094
  927PF6-    F514887   1.773   5.383   4.076  0.2572 -0.5790 -0.1886
  927PF6-    F614888   1.911   5.211   4.033  0.0297 -0.2567  0.2034
  927PF6-    F714889   1.928   5.532   3.985  0.1987  0.1900 -0.1713
  928PF6-    P114890   1.706   1.988   2.346  0.1398  0.2000  0.5226
  928PF6-    F214891   1.556   1.977   2.399  0.1684 -0.2021  0.4730
  928PF6-    F314892   1.859   2.002   2.287 -0.2897 -0.1248  0.1870
  928PF6-    F414893   1.762   1.900   2.475  0.2722 -0.3999  0.3824
  928PF6-    F514894   1.655   2.081   2.223  0.2257 -0.1795  0.5473
  928PF6-    F614895   1.727   2.121   2.432 -0.2716 -0.6359 -0.1148
  928PF6-    F714896   1.682   1.854   2.255 -0.3139  0.0249 -0.3784
  929PF6-    P114897   5.157   4.243   5.200  0.2356 -0.0220  0.3705
  929PF6-    F214898   5.277   4.353   5.191  0.7013 -0.5376  0.0051
  929PF6-    F314899   5.035   4.132   5.198 -0.2136  0.4037  0.4749
  929PF6-    F414900   5.081   4.316   5.080  0.1770 -0.1809 -0.2255
  929PF6-    F514901   5.231   4.180   5.326  0.0603 -0.0551 -0.4192
  929PF6-    F614902   5.076   4.334   5.302  0.1166  0.0341  0.4107
  929PF6-    F714903   5.242   4.151   5.098 -0.5264  0.3778  0.4130
  930PF6-    P114904   3.408   2.575   0.750 -0.2009 -0.3168 -0.4857
  930PF6-    F214905   3.361   2.727   0.785 -0.0725  0.4732 -0.4730
  930PF6-    F314906   3.441   2.421   0.714  0.1932  0.2234 -0.1540
  930PF6-    F414907   3.357   2.524   0.891  0.4084 -0.6190 -0.0123
  930PF6-    F514908   3.459   2.627   0.605 -0.4171  0.4276 -0.4251
  930PF6-    F614909   3.559   2.602   0.817  0.0822  0.2256 -0.0263
  930PF6-    F714910   3.269   2.546   0.687  0.3299  0.2628  0.0054
  931PF6-    P114911   1.087   1.132   1.223  0.2891 -0.0857  0.0761
  931PF6-    F214912   1.199   1.131   1.339  0.1534  0.1970  0.4268
  931PF6-    F314913   0.973   1.143   1.102 -0.1151 -0.1374 -0.9678
  931PF6-    F414914   1.151   1.266   1.162  0.0171  0.1147  0.0834
  931PF6-    F514915   1.017   1.003   1.279  0.3870 -0.2084  0.3691
  931PF6-    F614916   1.003   1.230   1.313  0.5782  0.3989  0.3806
  931PF6-    F714917   1.179   1.046   1.129  0.3510 -0.1752 -0.3268
  932PF6-    P114918   3.260   2.913   2.699  0.0006 -0.2753 -0.2556
  932PF6-    F214919   3.397   2.889   2.621  0.0380  0.2873  0.0455
  932PF6-    F314920   3.119   2.952   2.778 -0.3472  0.0210 -0.2689
  932PF6-    F414921   3.190   2.933   2.556 -0.4926  0.0470 -0.1737
  932PF6-    F514922   3.341   2.893   2.839 -0.2383  0.1414  0.0408
  932PF6-    F614923   3.293   3.063   2.704 -0.3060 -0.4637  0.0667
  932PF6-    F714924   3.235   2.756   2.694  0.2163 -0.1655 -0.3636
  933PF6-    P114925   2.646   0.104   1.616 -0.0137  0.1538 -0.4031
  933PF6-    F214926   2.653   0.245   1.684 -0.5238 -0.0372  0.5632
  933PF6-    F314927   2.638  -0.044   1.553 -0.0707  0.0430  0.2335
  933PF6-    F414928   2.800   0.080   1.671 -0.0455  0.4617 -0.4927
  933PF6-    F514929   2.495   0.129   1.560 -0.9077  0.1940 -0.2248
  933PF6-    F614930   2.709   0.163   1.476 -0.6080  0.2145  0.1492
  933PF6-    F714931   2.581   0.051   1.754 -0.1773 -0.2747 -0.2675
  934PF6-    P114932   3.671   1.320   4.956  0.1268 -0.0830 -0.1137
  934PF6-    F214933   3.579   1.196   5.011 -0.0374  0.0108 -0.0613
  934PF6-    F314934   3.761   1.439   4.884 -0.2905  0.3217  0.8150
  934PF6-    F414935   3.764   1.216   4.876 -0.3059 -0.2292 -0.2059
  934PF6-    F514936   3.580   1.431   5.027 -1.3835  0.1032  0.7209
  934PF6-    F614937   3.769   1.309   5.080 -0.1306  0.2649 -0.1305
  934PF6-    F714938   3.572   1.329   4.824  0.1825 -0.5053  0.1448
  935PF6-    P114939   3.434   4.949   0.893  0.3426  0.2676 -0.2797
  935PF6-    F214940   3.483   4.803   0.908 -0.3342  0.6440  0.1210
  935PF6-    F314941   3.392   5.103   0.875 -0.6263 -0.4306  0.0718
  935PF6-    F414942   3.345   4.937   1.025 -0.5149  0.0087 -0.1224
  935PF6-    F514943   3.520   4.954   0.760 -0.4248 -0.1396 -0.3806
  935PF6-    F614944   3.302   4.910   0.807 -0.5816  0.2665  0.4777
  935PF6-    F714945   3.556   4.991   0.979 -0.0380  0.7253 -0.0250
  936PF6-    P114946   1.739   1.329   3.184  0.0494 -0.0284  0.5458
  936PF6-    F214947   1.892   1.377   3.194  0.2444 -0.3429  0.1421
  936PF6-    F314948   1.583   1.288   3.178 -0.3656  0.3160 -0.2822
  936PF6-    F414949   1.726   1.385   3.036  0.0475  0.2155  0.2880
  936PF6-    F514950   1.745   1.267   3.332  0.0493  0.4716 -0.1450
  936PF6-    F614951   1.689   1.475   3.238 -0.1308 -0.1970  0.1714
  936PF6-    F714952   1.783   1.186   3.125  0.1307 -0.5151  0.6379
  937PF6-    P114953   3.628   2.564   4.602 -0.5614 -0.3244 -0.1786
  937PF6-    F214954   3.547   2.427   4.617  0.3554  0.2154 -0.0919
  937PF6-    F314955   3.699   2.705   4.586 -0.6210  0.0563  0.1592
  937PF6-    F414956   3.723   2.519   4.726  0.3683 -0.1378 -0.1753
  937PF6-    F514957   3.533   2.596   4.476  0.4287 -0.3302  0.3570
  937PF6-    F614958   3.522   2.629   4.703 -0.5028  0.4452 -0.2790
  937PF6-    F714959   3.735   2.502   4.494  0.5981 -0.7199 -0.6809
  938PF6-    P114960   4.025   1.873   1.712 -0.5359  0.4260  0.2823
  938PF6-    F214961   4.075   1.727   1.762  0.7341 -0.4625 -0.2719
  938PF6-    F314962   3.975   2.014   1.656 -0.1776 -0.3233  0.0613
  938PF6-    F414963   3.913   1.806   1.622 -0.0477  0.0492  0.3970
  938PF6-    F514964   4.134   1.947   1.804 -0.4582  0.3725  0.0106
  938PF6-    F614965   4.127   1.856   1.588  0.5193 -0.3772 -0.0528
  938PF6-    F714966   3.922   1.878   1.840 -0.1993 -0.1024  0.2778
  939PF6-    P114967   2.342   2.814   5.468  0.0728 -0.0914  0.1245
  939PF6-    F214968   2.191   2.857   5.483 -0.0490 -0.0553 -0.0342
  939PF6-    F314969   2.491   2.765   5.450 -0.3668 -0.3462  0.2702
  939PF6-    F414970   2.392   2.970   5.480 -0.4148 -0.1764  0.0122
  939PF6-    F514971   2.291   2.656   5.455 -0.7375 -0.2766  0.2528
  939PF6-    F614972   2.338   2.835   5.307 -0.2255  0.1091  0.3845
  939PF6-    F714973   2.363   2.786   5.627  0.4615 -0.2366  0.4133
  940PF6-    P114974   4.841   2.924   4.326  0.0865 -0.2848 -0.3526
  940PF6-    F214975   4.829   2.768   4.362 -0.7240  0.0112  0.5071
  940PF6-    F314976   4.866   3.077   4.290 -0.1101 -0.4417 -0.2684
  940PF6-    F414977   4.886   2.892   4.179  0.6143 -0.4875 -0.2181
  940PF6-    F514978   4.790   2.968   4.471 -0.3902 -0.3059  0.4114
  940PF6-    F614979   4.992   2.919   4.368 -0.3209 -0.4099  0.2029
  940PF6-    F714980   4.685   2.929   4.272  0.3096  0.3551 -0.1212
  941PF6-    P114981   1.452   0.868   3.811 -0.1089  0.3587 -0.3010
  941PF6-    F214982   1.364   0.773   3.723 -0.5870 -0.5363  0.5963
  941PF6-    F314983   1.530   0.970   3.903 -0.1473 -0.1288 -0.2828
  941PF6-    F414984   1.421   0.774   3.937 -0.2301 -0.0321  0.0840
  941PF6-    F514985   1.482   0.968   3.684  0.3256 -0.3495 -0.0279
  941PF6-    F614986   1.319   0.951   3.843  0.0808  0.4947  0.0097
  941PF6-    F714987   1.583   0.789   3.784 -0.5113  0.1167  0.2005
  942PF6-    P114988   4.402   0.910   0.469  0.1137  0.1476  0.0022
  942PF6-    F214989   4.456   0.755   0.461  0.4264 -0.1848 -0.0927
  942PF6-    F314990   4.345   1.060   0.475  0.1572 -0.1587 -0.1714
  942PF6-    F414991   4.469   0.934   0.614 -0.2130  0.7657 -0.2708
  942PF6-    F514992   4.336   0.897   0.317 -0.0502 -0.2230 -0.0831
  942PF6-    F614993   4.265   0.864   0.535 -0.6406 -0.0218 -0.4669
  942PF6-    F714994   4.536   0.960   0.401 -0.0371  0.3496  0.2635
  943PF6-    P114995   0.402   4.439   4.114  0.3925  0.3035 -0.2447
  943PF6-    F214996   0.259   4.397   4.060  0.2205 -0.1425 -0.5500
  943PF6-    F314997   0.549   4.479   4.171 -0.5996  0.1803  0.1597
  943PF6-    F414998   0.373   4.354   4.246 -0.2365  0.4063  0.3334
  943PF6-    F514999   0.439   4.519   3.980 -0.4394  0.2533  0.5698
  943PF6-    F615000   0.340   4.575   4.177 -0.1775 -0.3815 -0.0496
  943PF6-    F715001   0.464   4.308   4.047 -0.2983  0.2708  0.0749
  944PF6-    P115002   4.210   3.726   3.216  0.0873 -0.2303 -0.0752
  944PF6-    F215003   4.135   3.585   3.224 -0.1649 -0.2253 -0.0911
  944PF6-    F315004   4.290   3.869   3.212  0.3098  0.6946 -0.1707
  944PF6-    F415005   4.171   3.745   3.061 -0.0115  0.0265  0.3416
  944PF6-    F515006   4.251   3.715   3.373 -0.3103 -0.3048  0.6943
  944PF6-    F615007   4.344   3.648   3.181  0.4358 -0.1993 -0.0201
  944PF6-    F715008   4.076   3.800   3.256 -0.0334 -0.5999 -0.0340
  945PF6-    P115009   5.324   1.981   0.987  0.1102  0.3135 -0.0382
  945PF6-    F215010   5.372   2.051   0.852  0.0962  0.0279 -0.3482
  945PF6-    F315011   5.282   1.912   1.123  0.6274  0.0480  0.3203
  945PF6-    F415012   5.410   1.849   0.946  0.5351  0.7104  0.7955
  945PF6-    F515013   5.235   2.113   1.024  0.1354  0.3667  0.0468
  945PF6-    F615014   5.191   1.919   0.917  0.3692  0.5490 -0.0957
  945PF6-    F715015   5.456   2.048   1.059 -0.1685 -0.0414  0.0718
  946PF6-    P115016   3.319   4.066   3.051  0.0878 -0.2488 -0.6443
  946PF6-    F215017   3.355   4.219   3.097  0.0000  0.0711  0.1668
  946PF6-    F315018   3.297   3.913   3.000  0.3679 -0.0792 -0.5293
  946PF6-    F415019   3.443   4.073   2.950  0.3853  0.4461 -0.6853
  946PF6-    F515020   3.197   4.071   3.147 -0.2625  0.3344  0.3646
  946PF6-    F615021   3.224   4.121   2.935 -0.0869 -0.6646 -0.3557
  946PF6-    F715022   3.412   4.014   3.166 -0.2578 -0.0246 -0.3299
  947PF6-    P115023   1.757   3.672   4.457 -0.0373 -0.1955 -0.1292
  947PF6-    F215024   1.689   3.810   4.504  0.2239  0.1829  0.3751
  947PF6-    F315025   1.822   3.536   4.406 -0.0928 -0.4260  0.5037
  947PF6-    F415026   1.885   3.748   4.388  0.3940  0.1628 -0.5674
  947PF6-    F515027   1.640   3.589   4.523 -0.0460  0.3752  0.0716
  947PF6-    F615028   1.675   3.675   4.322  0.3452 -0.4264  0.2713
  947PF6-    F715029   1.835   3.663   4.593 -0.5494  0.1317  0.6092
  948PF6-    P115030   2.328   4.213   4.917  0.2160 -0.6714 -0.2809
  948PF6-    F215031   2.379   4.365   4.920 -0.3404 -0.1872  0.3238
  948PF6-    F315032   2.276   4.063   4.899 -0.4279 -0.3308  0.5494
  948PF6-    F415033   2.178   4.269   4.899  0.4213  0.2585  0.0866
  948PF6-    F515034   2.477   4.155   4.943  0.4999 -0.6810 -0.1731
  948PF6-    F615035   2.303   4.211   5.078 -0.0876 -0.6910  0.4157
  948PF6-    F715036   2.347   4.212   4.760 -0.2062  0.1149  0.0360
  949PF6-    P115037   3.106   1.163   1.272 -0.3162 -0.5255 -0.0521
  949PF6-    F215038   3.018   1.214   1.150  0.0767 -0.3062  0.3129
  949PF6-    F315039   3.185   1.109   1.399 -0.0516 -0.4547 -0.2465
  949PF6-    F415040   2.987   1.208   1.369 -0.6998  0.3869 -0.0248
  949PF6-    F515041   3.227   1.118   1.177  0.9111 -0.1420  0.0305
  949PF6-    F615042   3.166   1.309   1.295  0.5774 -0.0406  0.0848
  949PF6-    F715043   3.042   1.015   1.265  0.1753 -0.4957  0.8899
  950PF6-    P115044   4.468   4.181   0.667 -0.2143  0.2200  0.0433
  950PF6-    F215045   4.317   4.128   0.677 -0.4008 -0.1523 -0.5008
  950PF6-    F315046   4.614   4.240   0.654  0.1962  0.0546 -0.4763
  950PF6-    F415047   4.418   4.323   0.724 -0.0836 -0.1486  0.1834
  950PF6-    F515048   4.510   4.044   0.598 -0.0454 -0.0498 -0.2788
  950PF6-    F615049   4.431   4.234   0.520 -0.3855  0.3654  0.8180
  950PF6-    F715050   4.497   4.127   0.811  0.0616  0.3934 -0.4304
  951PF6-    P115051   0.200   3.434   4.717 -0.5699  0.3851  0.2246
  951PF6-    F215052   0.097   3.555   4.760  0.3787 -0.8343 -0.1641
  951PF6-    F315053   0.299   3.316   4.674  0.6222  0.1890  0.3826
  951PF6-    F415054   0.271   3.523   4.606  0.5104  0.4076 -0.1736
  951PF6-    F515055   0.136   3.345   4.833  0.7678 -0.1838  0.2959
  951PF6-    F615056   0.091   3.382   4.613 -0.2412 -0.0327 -0.3552
  951PF6-    F715057   0.312   3.484   4.825  0.5762  0.2856  0.0843
  952PF6-    P115058   4.931   5.395   4.518 -0.5599 -0.4552  0.1033
  952PF6-    F215059   4.801   5.368   4.433 -0.7091 -0.0924 -0.2175
  952PF6-    F315060   5.066   5.429   4.600 -0.3364  0.4961 -0.2259
  952PF6-    F415061   4.909   5.558   4.502 -0.2088 -0.2593 -0.4655
  952PF6-    F515062   4.956   5.241   4.543  0.3867 -0.1361 -0.6289
  952PF6-    F615063   5.022   5.390   4.384  0.7011  0.1342  0.3862
  952PF6-    F715064   4.842   5.402   4.657 -0.3380 -0.1243  0.1790
  953PF6-    P115065   4.566   3.822   4.086 -0.1172 -0.1659 -0.1177
  953PF6-    F215066   4.673   3.796   4.206  0.3498  0.5234  0.1700
  953PF6-    F315067   4.459   3.848   3.975 -0.3395 -0.5019  0.0134
  953PF6-    F415068   4.679   3.799   3.976 -0.1222  0.2869 -0.3658
  953PF6-    F515069   4.458   3.850   4.201 -0.2257  0.2341 -0.2227
  953PF6-    F615070   4.613   3.979   4.084  0.2082 -0.2813 -0.2943
  953PF6-    F715071   4.524   3.666   4.084  0.1742 -0.2439  0.0260
  954PF6-    P115072   1.395   5.203   2.385 -0.0294 -0.4646 -0.8565
  954PF6-    F215073   1.391   5.115   2.510 -0.1274 -0.7993  0.0825
  954PF6-    F315074   1.405   5.298   2.252 -0.0711 -0.1713 -0.2451
  954PF6-    F415075   1.533   5.265   2.438 -0.1202 -0.2661  0.2728
  954PF6-    F515076   1.250   5.149   2.332 -0.0788 -0.0059 -0.1201
  954PF6-    F615077   1.317   5.311   2.474 -0.2312  0.0715  1.0901
  954PF6-    F715078   1.468   5.084   2.303 -0.5222  0.4205  0.5636
  955PF6-    P115079   5.103   4.568   2.479 -0.3826 -0.2873  0.7836
  955PF6-    F215080   5.220   4.665   2.537 -0.5939 -0.0440  0.5324
  955PF6-    F315081   4.987   4.468   2.423 -0.4804  0.0380  0.1179
  955PF6-    F415082   4.995   4.678   2.526  0.0032  0.5181 -0.4175
  955PF6-    F515083   5.210   4.461   2.424 -0.4898 -0.5261  0.4628
  955PF6-    F615084   5.098   4.498   2.623  0.0175  0.3441  0.5829
  955PF6-    F715085   5.110   4.643   2.332  0.3683  0.4058 -0.2187
  956PF6-    P115086   2.094   0.920   0.737  0.0024  0.1896 -0.1000
  956PF6-    F215087   2.227   0.958   0.657  0.7272  0.0289 -0.1777
  956PF6-    F315088   1.960   0.881   0.820  0.1621 -0.0278  0.2423
  956PF6-    F415089   2.184   0.833   0.839  0.1068 -0.0029  0.7082
  956PF6-    F515090   2.012   1.019   0.629  0.6320  0.2331 -0.1226
  956PF6-    F615091   2.065   0.786   0.650 -0.5101 -0.1828 -0.0756
  956PF6-    F715092   2.110   1.045   0.827 -0.3261 -0.1120 -0.4670
  957PF6-    P115093   2.137   3.294   0.687  0.1917 -0.0700 -0.3722
  957PF6-    F215094   2.161   3.437   0.629 -0.3014 -0.1849 -0.7823
  957PF6-    F315095   2.125   3.152   0.750  0.3267  0.8512 -0.3971
  957PF6-    F415096   2.295   3.274   0.679 -0.1489  0.4923  0.0801
  957PF6-    F515097   1.980   3.322   0.696  0.8336  0.1637  0.2989
  957PF6-    F615098   2.110   3.236   0.541  0.3044  0.1046  0.1305
  957PF6-    F715099   2.145   3.359   0.830  0.1619  0.2447 -0.2344
  958PF6-    P115100   0.194   3.924   3.061  0.3180 -0.2249  0.1240
  958PF6-    F215101   0.123   3.966   2.927 -0.5900 -0.3214  0.2522
  958PF6-    F315102   0.251   3.877   3.203 -0.3489 -0.4086  0.0527
  958PF6-    F415103   0.165   4.072   3.123  0.3282 -0.1418 -0.1550
  958PF6-    F515104   0.215   3.775   3.001  0.0481 -0.3880  0.2155
  958PF6-    F615105   0.344   3.970   3.015  0.1670  0.2128 -0.1523
  958PF6-    F715106   0.045   3.876   3.108 -0.4042  0.0735 -0.0484
  959PF6-    P115107   3.691   0.138   3.982 -0.1016  0.0552  0.1771
  959PF6-    F215108   3.548   0.092   3.953  0.2335  0.0840 -0.1314
  959PF6-    F315109   3.837   0.179   4.017  0.4261 -0.0285 -0.2811
  959PF6-    F415110   3.729   0.072   3.840 -0.0026 -0.4059  0.0435
  959PF6-    F515111   3.640   0.192   4.126 -0.3234  0.0764 -0.0773
  959PF6-    F615112   3.718  -0.004   4.052 -0.0192  0.0362  0.7317
  959PF6-    F715113   3.658   0.278   3.898 -0.4692  0.4109 -0.0148
  960PF6-    P115114   4.278   2.238   4.903  0.3251 -0.4245 -0.4386
  960PF6-    F215115   4.342   2.388   4.883  0.0282  0.7382 -0.3068
  960PF6-    F315116   4.213   2.092   4.925 -0.2963 -0.4942 -0.0701
  960PF6-    F415117   4.330   2.224   5.053 -0.2662 -0.1901 -0.1785
  960PF6-    F515118   4.228   2.244   4.749  0.0806  0.0766 -0.6913
  960PF6-    F615119   4.412   2.169   4.844 -0.1235  0.2330  0.0601
  960PF6-    F715120   4.142   2.310   4.956 -0.0331  0.1065  0.1751
  961PF6-    P115121   2.218   0.042   0.322 -0.0105 -0.1060 -0.4695
  961PF6-    F215122   2.246  -0.108   0.280 -0.4723  0.2526  0.3032
  961PF6-    F315123   2.189   0.199   0.357  0.8562  0.6327 -0.0230
  961PF6-    F415124   2.335   0.090   0.221 -0.0427  0.3874  0.1218
  961PF6-    F515125   2.105  -0.001   0.427  0.1024 -0.2391  0.2213
  961PF6-    F615126   2.334   0.033   0.435 -0.0898 -0.1489  0.9689
  961PF6-    F715127   2.117   0.044   0.202  0.2888 -0.3135 -0.1520
  962PF6-    P115128   3.934   3.147   2.386  0.0101  0.6141  0.4643
  962PF6-    F215129   3.841   3.019   2.360 -0.1888  0.8950 -0.0366
  962PF6-    F315130   4.016   3.273   2.411 -0.6210  0.3045 -0.1922
  962PF6-    F415131   4.058   3.049   2.432 -0.7153  0.1998 -0.2002
  962PF6-    F515132   3.800   3.233   2.335  0.0824  0.1495 -0.5563
  962PF6-    F615133   3.878   3.167   2.535  0.5554  0.5388  0.2076
  962PF6-    F715134   3.992   3.134   2.235  0.3290  0.1463 -0.3703
  963PF6-    P115135   2.358   4.017   2.823  0.0151 -0.5570 -0.2025
  963PF6-    F215136   2.508   4.067   2.838 -0.2221 -0.3004 -0.3629
  963PF6-    F315137   2.203   3.973   2.807  0.2741  0.3148  0.1842
  963PF6-    F415138   2.313   4.153   2.751 -0.3345 -0.1029 -0.1464
  963PF6-    F515139   2.395   3.872   2.884  0.4387 -0.1091  0.7475
  963PF6-    F615140   2.329   4.075   2.969 -0.2275  0.7553  0.1190
  963PF6-    F715141   2.387   3.961   2.682 -0.1132 -0.6910 -0.2076
  964PF6-    P115142   0.362   5.206   1.448 -0.2388  0.2572 -0.1417
  964PF6-    F215143   0.258   5.214   1.323 -0.1531  0.0854 -0.2540
  964PF6-    F315144   0.460   5.191   1.573  0.3622 -0.7119 -0.3321
  964PF6-    F415145   0.446   5.336   1.398  0.0495 -0.0192  0.0571
  964PF6-    F515146   0.286   5.071   1.497  0.0327 -0.2121 -0.2441
  964PF6-    F615147   0.462   5.113   1.364  0.1447  0.1974 -0.3229
  964PF6-    F715148   0.266   5.304   1.535  0.1818 -0.1565 -0.2634
  965PF6-    P115149   1.397   0.132   3.283  0.1573 -0.0593  0.3970
  965PF6-    F215150   1.416   0.277   3.231  0.3298  0.0702  0.2391
  965PF6-    F315151   1.369  -0.016   3.345 -0.2748 -0.7133 -0.2257
  965PF6-    F415152   1.496   0.163   3.398  0.1238 -0.2961 -0.0785
  965PF6-    F515153   1.296   0.103   3.159 -0.7304 -0.1938 -0.0239
  965PF6-    F615154   1.516   0.078   3.193 -0.1328  0.7236  0.1176
  965PF6-    F715155   1.272   0.190   3.368  0.1591  0.6951 -0.0088
  966PF6-    P115156   4.119   2.272   3.884  0.3470 -0.3049 -0.4549
  966PF6-    F215157   4.045   2.152   3.804  0.3459 -0.0613  0.0962
  966PF6-    F315158   4.179   2.391   3.964  0.0047 -0.4711 -0.3257
  966PF6-    F415159   4.236   2.287   3.773  0.1689  0.1344 -0.5769
  966PF6-    F515160   4.008   2.251   3.998  0.2944 -0.5727 -1.1156
  966PF6-    F615161   4.217   2.170   3.954  0.4190  0.0557 -0.0143
  966PF6-    F715162   4.018   2.371   3.811 -0.3156  0.1079  0.1158
  967PF6-    P115163   2.107   0.699   3.007 -0.4458 -0.0432 -0.5540
  967PF6-    F215164   2.168   0.847   3.029 -0.7353  0.1887 -0.2143
  967PF6-    F315165   2.037   0.554   2.985  0.9870  0.0107 -0.2526
  967PF6-    F415166   2.091   0.717   2.849  0.5430 -0.1181  0.3943
  967PF6-    F515167   2.113   0.681   3.164  0.1020  0.5631 -0.2122
  967PF6-    F615168   1.969   0.767   3.030  0.6214  0.0543 -0.1941
  967PF6-    F715169   2.254   0.638   2.991  0.6485  0.6055 -0.5794
  968PF6-    P115170   4.036   4.946   4.795  0.5474  0.1102  0.6162
  968PF6-    F215171   4.056   5.081   4.707 -0.2290  0.4866  0.0803
  968PF6-    F315172   4.022   4.806   4.869  0.4880  0.0185 -0.4024
  968PF6-    F415173   4.185   4.950   4.846 -0.0466 -0.5731 -0.1305
  968PF6-    F515174   3.886   4.935   4.746  0.2379 -0.0765 -0.3047
  968PF6-    F615175   4.088   4.866   4.669  0.2713  0.0073  0.2448
  968PF6-    F715176   3.989   5.023   4.928  0.0212 -0.0936 -0.0965
  969PF6-    P115177   2.684   2.536   3.829 -0.4753 -0.2585  0.3479
  969PF6-    F215178   2.571   2.469   3.916  0.1477  0.3341 -0.4336
  969PF6-    F315179   2.791   2.612   3.729  0.3265 -0.0184 -0.4123
  969PF6-    F415180   2.593   2.666   3.817  0.0126  0.0623  0.4730
  969PF6-    F515181   2.781   2.406   3.851 -0.6226 -0.5906 -0.1348
  969PF6-    F615182   2.612   2.477   3.696 -0.3993 -0.1562 -0.1715
  969PF6-    F715183   2.747   2.605   3.961 -0.1656  0.2671  0.2497
  970PF6-    P115184   4.931   1.711   4.912 -0.0959 -0.3060  0.1653
  970PF6-    F215185   5.054   1.804   4.962  0.2660 -0.1321  0.0464
  970PF6-    F315186   4.804   1.620   4.865 -0.0763 -0.6200  0.1357
  970PF6-    F415187   4.853   1.763   5.040  0.1117  0.3196  0.5822
  970PF6-    F515188   5.023   1.665   4.784 -0.0337  0.1269  0.1403
  970PF6-    F615189   4.988   1.589   4.999  0.1780 -0.0250  0.1650
  970PF6-    F715190   4.882   1.832   4.818 -0.0979  0.0493 -0.4382
  971PF6-    P115191   4.428   5.221   3.829 -0.2584 -0.3349  0.2500
  971PF6-    F215192   4.485   5.095   3.917  0.1098  0.2619 -0.0181
  971PF6-    F315193   4.369   5.345   3.757  0.1275  0.1618  0.3802
  971PF6-    F415194   4.574   5.286   3.822  0.5121  0.0474  0.5293
  971PF6-    F515195   4.277   5.159   3.834 -0.2170  0.4096 -0.9649
  971PF6-    F615196   4.404   5.294   3.967 -0.0249 -0.3206  0.3247
  971PF6-    F715197   4.462   5.154   3.687 -0.0712  0.3218 -0.1836
  972PF6-    P115198   2.502   0.740   1.843 -0.1383  0.4166  0.2627
  972PF6-    F215199   2.643   0.706   1.765 -0.2094  0.3106  0.1170
  972PF6-    F315200   2.362   0.777   1.916 -0.2868 -0.0736 -0.1458
  972PF6-    F415201   2.427   0.754   1.700 -0.1904  0.1014 -0.0238
  972PF6-    F515202   2.576   0.728   1.988  0.1563  0.3280 -0.4486
  972PF6-    F615203   2.536   0.894   1.839  0.0741  0.5875  0.6241
  972PF6-    F715204   2.458   0.582   1.841  0.8089  0.3814 -0.1315
  973PF6-    P115205   2.206   2.982   3.049 -0.0799 -0.1721  0.4105
  973PF6-    F215206   2.188   3.123   3.129  0.0279  0.6625  0.2508
  973PF6-    F315207   2.221   2.844   2.963 -0.2073 -0.0587 -0.2229
  973PF6-    F415208   2.055   2.992   2.987 -0.1485 -0.2581  0.2822
  973PF6-    F515209   2.358   2.960   3.104 -0.0623 -0.4980  0.1500
  973PF6-    F615210   2.148   2.895   3.168  0.4016 -0.6021  0.0497
  973PF6-    F715211   2.261   3.060   2.924 -0.4030  0.2468  0.1395
  974PF6-    P115212   2.167   1.461   5.066  0.1407 -0.1347  0.1071
  974PF6-    F215213   2.040   1.391   5.008  0.5496 -0.1972  0.0903
  974PF6-    F315214   2.303   1.530   5.124 -0.0482  0.1424 -0.0028
  974PF6-    F415215   2.251   1.340   5.005 -0.6226 -0.0699  0.3159
  974PF6-    F515216   2.067   1.582   5.111 -0.1256 -0.4196 -0.0147
  974PF6-    F615217   2.139   1.383   5.202  0.1861  0.2746  0.3543
  974PF6-    F715218   2.190   1.530   4.923  0.1646 -0.0389  0.0558
  975PF6-    P115219   1.331   2.367   4.320  0.1048  0.5017 -0.1743
  975PF6-    F215220   1.182   2.404   4.267 -0.1662  0.1701  0.5727
  975PF6-    F315221   1.473   2.322   4.379  0.2633  0.2100  0.1762
  975PF6-    F415222   1.256   2.263   4.415 -0.1318 -0.0174 -1.2932
  975PF6-    F515223   1.394   2.467   4.214 -0.2369 -0.1027 -0.0791
  975PF6-    F615224   1.322   2.492   4.426  0.6574 -0.0606  0.2955
  975PF6-    F715225   1.343   2.253   4.208  0.1908  0.2422 -0.2262
  976PF6-    P115226   0.871   4.845   2.829  0.3323 -0.0175 -0.0274
  976PF6-    F215227   0.867   4.797   2.675  0.4238 -0.1648  0.0754
  976PF6-    F315228   0.876   4.895   2.983 -0.4265 -0.2161 -0.1204
  976PF6-    F415229   0.744   4.754   2.867 -0.3740  0.3311  0.3799
  976PF6-    F515230   0.992   4.946   2.792 -0.4686  0.0590 -0.8298
  976PF6-    F615231   0.770   4.968   2.791 -0.8148  0.3660  0.3412
  976PF6-    F715232   0.969   4.725   2.865  0.2419 -0.5955 -0.0691
  977PF6-    P115233   2.998   0.703   3.802  0.0335 -0.1061  0.2760
  977PF6-    F215234   2.998   0.763   3.948 -0.2743  0.0022 -0.2174
  977PF6-    F315235   3.002   0.633   3.660  0.4536  0.3222  0.4342
  977PF6-    F415236   3.041   0.847   3.741 -0.2300 -0.8976 -0.5093
  977PF6-    F515237   2.954   0.564   3.863  0.2419 -0.2987 -0.3948
  977PF6-    F615238   2.844   0.741   3.776  0.2177  0.1039  0.0540
  977PF6-    F715239   3.152   0.667   3.821  0.0313 -0.1308 -0.1210
  978PF6-    P115240   0.032   4.998   5.005 -0.0390 -0.0117  0.1854
  978PF6-    F215241  -0.032   5.010   5.152  0.5670 -0.0177 -0.3947
  978PF6-    F315242   0.096   4.988   4.857 -0.0208 -0.2605 -0.1013
  978PF6-    F415243   0.065   5.155   5.009  0.0380  0.2171 -0.6047
  978PF6-    F515244   0.005   4.842   5.005 -0.2231 -0.4367 -0.6702
  978PF6-    F615245  -0.108   5.025   4.947  0.0275 -0.3022  0.0695
  978PF6-    F715246   0.173   4.976   5.072 -0.2463  0.0745  0.1981
  979PF6-    P115247   5.102   2.543   0.552  0.0438  0.6203 -0.1119
  979PF6-    F215248   5.048   2.445   0.431  0.1199  0.1016 -0.1390
  979PF6-    F315249   5.156   2.644   0.660 -0.7642 -0.3591  0.0818
  979PF6-    F415250   5.236   2.449   0.574 -0.1199 -0.3367  0.3140
  979PF6-    F515251   4.970   2.636   0.537  0.3419  0.7828 -0.5831
  979PF6-    F615252   5.021   2.446   0.655 -0.0134  0.1577  0.1139
  979PF6-    F715253   5.172   2.634   0.441  0.3493  0.1974  0.2311
  980PF6-    P115254   4.266   1.887   2.842  0.0420  0.0969  0.1684
  980PF6-    F215255   4.246   1.835   2.996 -0.3634 -0.1937 -0.5299
  980PF6-    F315256   4.280   1.933   2.687 -0.3221 -0.5414 -0.6582
  980PF6-    F415257   4.161   1.776   2.792  0.2034  0.2346 -0.1070
  980PF6-    F515258   4.367   2.001   2.889  0.5245  0.4027 -0.0455
  980PF6-    F615259   4.398   1.791   2.828 -0.6988 -0.0087 -0.1949
  980PF6-    F715260   4.148   1.995   2.859  0.5063  0.1556  0.0802
  981PF6-    P115261   0.019   1.648   2.182 -0.0473 -0.2027  0.5213
  981PF6-    F215262  -0.050   1.507   2.218  0.1087  0.2693 -0.4015
  981PF6-    F315263   0.081   1.790   2.141 -0.1686 -0.3431 -0.9470
  981PF6-    F415264   0.110   1.647   2.319 -0.2109  0.7382  0.1377
  981PF6-    F515265  -0.059   1.650   2.048  0.3852 -0.1971 -0.0127
  981PF6-    F615266  -0.097   1.732   2.260  0.4675 -0.0315 -0.2251
  981PF6-    F715267   0.132   1.569   2.110 -0.2211  0.0084 -0.0370
  982PF6-    P115268   1.206   1.042   2.371  0.4868  0.2951 -0.1554
  982PF6-    F215269   1.337   1.053   2.465  0.4658  0.1857  0.5632
  982PF6-    F315270   1.074   1.047   2.277 -0.2715 -0.2061  0.5013
  982PF6-    F415271   1.112   1.063   2.506 -0.1196  0.4363  0.2899
  982PF6-    F515272   1.291   1.015   2.247 -0.1261 -0.4918 -0.4467
  982PF6-    F615273   1.198   0.889   2.402  0.2605 -0.4260  0.0935
  982PF6-    F715274   1.217   1.205   2.350  0.5486 -0.0868  0.3033
  983PF6-    P115275   3.332   0.490   0.706 -0.1675  0.1291 -0.1582
  983PF6-    F215276   3.377   0.346   0.732 -0.2298  0.4780  0.0882
  983PF6-    F315277   3.285   0.639   0.682 -0.4535  0.1568 -0.3818
  983PF6-    F415278   3.376   0.483   0.553  0.6408  0.3538 -0.1384
  983PF6-    F515279   3.288   0.505   0.857 -0.7222  0.1882  0.1375
  983PF6-    F615280   3.475   0.539   0.752 -0.3024  0.0018 -0.1919
  983PF6-    F715281   3.186   0.436   0.672  0.0300  0.1475 -0.1289
  984PF6-    P115282   4.358   1.314   4.227 -0.0475  0.2456  0.2706
  984PF6-    F215283   4.239   1.208   4.260 -0.1153 -0.4993 -0.0140
  984PF6-    F315284   4.477   1.413   4.198  0.3599 -0.0403 -0.6812
  984PF6-    F415285   4.421   1.277   4.371  0.1833 -0.6637  0.3385
  984PF6-    F515286   4.303   1.344   4.085  0.4233 -0.0987  0.4067
  984PF6-    F615287   4.268   1.431   4.296 -0.3658  0.1968  0.0276
  984PF6-    F715288   4.444   1.191   4.165 -0.3766 -0.1149 -0.1500
  985PF6-    P115289   4.365   0.907   1.858  0.0684 -0.1057  0.6447
  985PF6-    F215290   4.383   0.797   1.967  0.5154  0.1528  0.2381
  985PF6-    F315291   4.348   1.014   1.739  0.0616  0.0327  0.1365
  985PF6-    F415292   4.348   0.790   1.755 -0.6135  0.5808 -0.1414
  985PF6-    F515293   4.385   1.024   1.963 -0.1805 -0.0833  0.2609
  985PF6-    F615294   4.530   0.907   1.834  0.6300  0.1608  0.1642
  985PF6-    F715295   4.205   0.906   1.881  0.6296 -0.6210 -0.1684
  986PF6-    P115296   3.087   5.027   2.796 -0.2475 -0.1726  0.4220
  986PF6-    F215297   3.080   5.084   2.643  0.4076  0.5734 -0.1682
  986PF6-    F315298   3.097   4.973   2.955  0.9424 -0.3952 -0.2354
  986PF6-    F415299   3.183   4.915   2.745  0.1115  0.3385 -0.2432
  986PF6-    F515300   2.989   5.146   2.841 -0.5966 -0.0994 -0.2011
  986PF6-    F615301   2.962   4.933   2.768 -0.4615  0.6717  0.2114
  986PF6-    F715302   3.213   5.126   2.817  0.1570 -0.0754  0.0485
  987PF6-    P115303   0.123   2.439   3.669 -0.1828  0.1766 -0.3104
  987PF6-    F215304  -0.007   2.487   3.593 -0.0681  0.3821 -0.1974
  987PF6-    F315305   0.260   2.391   3.738  0.0564 -0.3732 -0.6107
  987PF6-    F415306   0.148   2.584   3.728  0.5584 -0.1374 -0.2805
  987PF6-    F515307   0.094   2.287   3.615 -0.2085 -0.1199  0.0394
  987PF6-    F615308   0.209   2.477   3.534 -0.0220 -0.1051  0.2916
  987PF6-    F715309   0.033   2.408   3.800  0.0469 -0.1944  0.1884
  988PF6-    P115310   4.371   4.020   2.341  0.4935 -0.1962 -0.0414
  988PF6-    F215311   4.497   4.121   2.372 -0.2905 -0.1042  0.0435
  988PF6-    F315312   4.251   3.923   2.305 -0.4322  0.6264 -0.6528
  988PF6-    F415313   4.283   4.140   2.285 -0.1478  0.2015 -0.2923
  988PF6-    F515314   4.462   3.900   2.401  0.3369 -0.4093  0.7251
  988PF6-    F615315   4.311   4.038   2.491 -0.2039  0.1271 -0.1233
  988PF6-    F715316   4.430   3.996   2.196 -0.4248  0.0289  0.4828
  989PF6-    P115317   4.169   3.571   4.985  0.1583  0.2049 -0.6202
  989PF6-    F215318   4.020   3.601   5.035 -0.2368 -0.3889  0.0298
  989PF6-    F315319   4.319   3.535   4.939  0.0966 -0.4823  0.1366
  989PF6-    F415320   4.171   3.453   5.094 -0.6392 -0.3150  0.1761
  989PF6-    F515321   4.166   3.685   4.874  0.2330 -0.3587 -0.5923
  989PF6-    F615322   4.220   3.679   5.090  0.1219  0.4051 -0.5237
  989PF6-    F715323   4.109   3.468   4.882 -0.1502  0.4331  0.0759
  990PF6-    P115324   5.385   0.986   5.292  0.1560 -0.2965  0.1359
  990PF6-    F215325   5.465   0.856   5.266  0.0412 -0.6931 -0.6037
  990PF6-    F315326   5.306   1.120   5.320  0.2031 -0.1214  0.0016
  990PF6-    F415327   5.392   1.022   5.135 -0.0913  0.1745  0.3798
  990PF6-    F515328   5.384   0.946   5.453  0.2535 -0.1463  0.4060
  990PF6-    F615329   5.517   1.071   5.318  0.4920 -0.1469  0.1907
  990PF6-    F715330   5.252   0.910   5.268 -0.2198  0.1145  0.0268
  991PF6-    P115331   0.291   3.352   1.128 -0.3732  0.0631 -0.1886
  991PF6-    F215332   0.359   3.302   0.988  0.3272 -0.8135 -0.1477
  991PF6-    F315333   0.222   3.391   1.268  0.0190 -0.0755  0.5794
  991PF6-    F415334   0.273   3.195   1.166  0.5224 -0.1648  0.7628
  991PF6-    F515335   0.312   3.509   1.096  0.1787  0.2660  0.4472
  991PF6-    F615336   0.141   3.357   1.062 -0.0850 -0.0892  0.1051
  991PF6-    F715337   0.438   3.343   1.196  0.0736 -0.0257  0.1843
  992PF6-    P115338   3.480   3.865   5.377  0.2619 -0.2348  0.0630
  992PF6-    F215339   3.546   3.938   5.509  1.1998 -0.2462  0.5236
  992PF6-    F315340   3.421   3.779   5.253 -0.1606  0.3251  0.0818
  992PF6-    F415341   3.329   3.900   5.429  0.0188  0.6262  0.0736
  992PF6-    F515342   3.628   3.837   5.322  0.4449  0.0210 -0.2246
  992PF6-    F615343   3.481   3.729   5.466  0.7377 -0.0783  0.5173
  992PF6-    F715344   3.470   3.998   5.300 -0.0216 -0.2546  0.0386
  993PF6-    P115345   1.099   0.247   1.492 -0.0380  0.0795 -0.4939
  993PF6-    F215346   1.061   0.089   1.511 -0.3762 -0.1678  0.1514
  993PF6-    F315347   1.146   0.396   1.475 -0.5845 -0.3415 -0.0118
  993PF6-    F415348   0.949   0.296   1.533  0.2235 -0.2287  0.3343
  993PF6-    F515349   1.251   0.199   1.449  1.0066  0.2596 -0.6833
  993PF6-    F615350   1.056   0.242   1.334  0.0819  0.1933 -0.0392
  993PF6-    F715351   1.144   0.254   1.642 -0.6559 -0.2774 -0.2558
  994PF6-    P115352   1.273   4.016   0.909 -0.1910  0.2769 -0.8037
  994PF6-    F215353   1.281   3.879   0.828 -0.1446 -0.6185 -0.2172
  994PF6-    F315354   1.272   4.153   0.994 -0.4834  0.3831  0.1900
  994PF6-    F415355   1.348   4.092   0.797  0.0811 -0.7020 -0.0896
  994PF6-    F515356   1.204   3.936   1.032 -0.1185 -0.2744  0.1172
  994PF6-    F615357   1.409   3.982   0.987  0.2753 -0.2365 -0.6945
  994PF6-    F715358   1.130   4.053   0.842  0.7164  0.2958  0.1709
  995PF6-    P115359   0.621   5.186   0.268 -0.5553 -0.0836 -0.1486
  995PF6-    F215360   0.774   5.175   0.221  0.1700 -0.2321 -0.2431
  995PF6-    F315361   0.466   5.196   0.300 -0.3798 -0.1077 -0.2264
  995PF6-    F415362   0.582   5.223   0.120  0.0726 -0.1417  0.6492
  995PF6-    F515363   0.665   5.146   0.418 -0.0042  0.3245  0.2711
  995PF6-    F615364   0.646   5.342   0.300 -0.2578  0.2866  0.5383
  995PF6-    F715365   0.597   5.031   0.237 -0.5529  0.6794  0.2532
  996PF6-    P115366   4.503   4.993   1.362  0.2518 -0.4375  0.1679
  996PF6-    F215367   4.631   5.091   1.356 -0.3255  0.0862 -0.2302
  996PF6-    F315368   4.377   4.895   1.374  0.4138  0.1487 -0.8069
  996PF6-    F415369   4.451   5.033   1.218 -0.4842 -0.3984 -0.1772
  996PF6-    F515370   4.553   4.949   1.504  0.3085  0.2348 -0.2965
  996PF6-    F615371   4.409   5.115   1.429 -0.3812 -0.3859 -0.0722
  996PF6-    F715372   4.588   4.874   1.302 -0.2700 -0.4774  0.8916
  997PF6-    P115373   3.359   2.064   2.881  0.4213 -0.2184 -0.2426
  997PF6-    F215374   3.372   1.918   2.943  0.3216 -0.2372 -0.2029
  997PF6-    F315375   3.341   2.204   2.811 -0.1809  0.0825  0.0660
  997PF6-    F415376   3.251   2.008   2.779 -0.3994  1.1235 -0.2656
  997PF6-    F515377   3.466   2.124   2.986 -0.1964  0.0625 -0.3114
  997PF6-    F615378   3.484   2.040   2.782 -0.4094 -0.5676  0.0447
  997PF6-    F715379   3.236   2.097   2.983 -0.0193 -0.0469  0.3039
  998PF6-    P115380   1.438   3.334   1.266  0.1668 -0.1259  0.1609
  998PF6-    F215381   1.342   3.432   1.185  0.2353  0.2756 -0.0799
  998PF6-    F315382   1.533   3.240   1.354  0.9437  0.0066  0.0698
  998PF6-    F415383   1.556   3.445   1.241 -0.2339 -0.0337 -0.5950
  998PF6-    F515384   1.320   3.227   1.284  0.0653  0.5011 -0.1306
  998PF6-    F615385   1.477   3.256   1.133 -0.5001  0.2032 -0.5434
  998PF6-    F715386   1.387   3.416   1.405  0.2462  0.4604 -0.3462
  999PF6-    P115387   0.930   3.349   2.758 -0.1300  0.2282 -0.0641
  999PF6-    F215388   0.846   3.481   2.738 -0.3133  0.0598 -0.3534
  999PF6-    F315389   1.020   3.218   2.772  0.2367  0.0138  0.1794
  999PF6-    F415390   0.861   3.289   2.629  0.4169 -0.5730 -0.0727
  999PF6-    F515391   0.993   3.405   2.894  0.1734 -0.1115 -0.3261
  999PF6-    F615392   0.817   3.289   2.846  0.3072  0.3361 -0.2222
  999PF6-    F715393   1.050   3.421   2.669 -0.6510 -0.5151  0.3337
 1000PF6-    P115394   2.658   0.682   4.546 -0.0391  0.2715  0.3277
 1000PF6-    F215395   2.776   0.609   4.631  0.1699 -0.1326  0.1598
 1000PF6-    F315396   2.538   0.755   4.464 -0.1600 -0.0300 -0.3806
 1000PF6-    F415397   2.620   0.536   4.481 -0.4602  0.4104 -0.4606
 1000PF6-    F515398   2.708   0.825   4.605  0.4740 -0.4178 -0.1411
 1000PF6-    F615399   2.760   0.706   4.429  0.6565  0.1604 -0.2553
 1000PF6-    F715400   2.558   0.662   4.669  0.1109  0.1285 -0.0587
 1001Na+     N115401   0.764   5.469   2.517 -0.2651  0.0696  0.7812
 1002Na+     N115402   2.797   1.456   0.039  0.2026 -0.1751  0.0101
 1003Na+     N115403   5.222   4.926   1.478  0.2880 -0.3798 -0.1488
 1004Na+     N115404   4.244   1.841   2.210  0.0585 -0.2593 -0.2041
 1005Na+     N115405   3.633   2.729   1.964 -0.0917  0.0965  0.2663
 1006Na+     N115406   1.087   1.560   2.809  0.0011  0.2323  0.4154
 1007Na+     N115407   2.197   0.537   1.921 -0.1161 -0.1548  0.0414
 1008Na+     N115408   0.071   4.494   3.387  0.2316 -0.5096  0.1346
 1009Na+     N115409   3.583   4.620   2.215 -0.0625 -0.2852 -0.0924
 1010Na+     N115410   4.963   3.509   4.687  0.0245  0.1539 -0.2520
 1011Na+     N115411   3.967   0.914   1.113 -0.1170 -0.0654  0.1987
 1012Na+     N115412   2.346   0.041   3.101 -0.3857 -0.2619  0.4841
 1013Na+     N115413   2.822   4.335   2.884  0.3942  0.3201 -0.1703
 1014Na+     N115414   3.822   4.230   4.766 -0.0822  0.1802  0.4617
 1015Na+     N115415   4.449   4.444   2.912 -0.5952 -0.0570  0.1467
 1016Na+     N115416   3.547   0.981   3.968  0.0291  0.5874  0.1951
 1017Na+     N115417   4.980   3.206   4.092  0.2510 -0.2017 -0.1932
 1018Na+     N115418   2.662   3.228   1.025 -0.0596  0.1812  0.2602
 1019Na+     N115419   3.435   4.267   0.505  0.1585 -0.0782  0.1704
 1020Na+     N115420   0.750   2.063   2.106  0.5514  0.2497  0.1139
 1021Na+     N115421   3.937   2.319   1.069  0.2298  0.1613  0.4388
 1022Na+     N115422   0.811   5.274   1.007  0.4670 -0.6754  0.6387
 1023Na+     N115423   1.741   1.151   1.246  0.2960  0.2343 -0.0526
 1024Na+     N115424   3.269   2.321   3.639 -0.4232 -0.2717 -0.2028
 1025Na+     N115425   1.285   4.466   2.367  0.2759 -0.2465 -0.4084
 1026Na+     N115426   4.568   1.044   3.503 -0.3238  0.3751 -0.0135
 1027Na+     N115427   1.871   0.521   4.306 -0.0598 -0.3069  0.5337
 1028Na+     N115428   1.686   2.772   0.935  0.4020 -0.5845  0.1702
 1029Na+     N115429   0.685   5.120   5.110  0.3523 -0.0499  0.2654
 1030Na+     N115430   4.033   5.123   3.798  0.4368 -0.2126 -0.0591
 1031Na+     N115431   2.324   2.209   5.064  0.3167 -0.3484  0.2336
 1032Na+     N115432   1.431   4.121   1.211 -0.1562 -0.7813  0.0550
 1033Na+     N115433   2.894   3.210   3.877  0.1671  0.3113 -0.2399
 1034Na+     N115434   4.025   4.385   1.182 -0.2166  0.0626 -0.2874
 1035Na+     N115435   1.045   4.034   2.945 -0.4573  0.0026  0.1381
 1036Na+     N115436   0.119   4.548   0.136 -0.3855  0.1813  0.4673
 1037Na+     N115437   0.568   2.303   3.100 -0.1800  0.5593 -0.3998
 1038Na+     N115438   1.395   0.215   3.596 -0.4084  0.0399 -0.0792
 1039Na+     N115439   1.923   3.176   5.019  0.1951 -0.0340 -0.3475
 1040Na+     N115440   2.009   0.834   5.032  0.1468  0.0730  0.1000
 1041Na+     N115441   2.640   1.933   0.989  0.0184 -0.2114  0.2971
 1042Na+     N115442   3.887   2.639   2.768 -0.1750 -0.0334 -0.1959
 1043Na+     N115443   0.766   3.566   0.732  0.0937  0.4531  0.2699
 1044Na+     N115444   1.956   3.955   0.603 -0.2451  0.1162  0.1892
 1045Na+     N115445   2.126   2.032   3.721  0.5299  0.2352  0.6737
 1046Na+     N115446   0.056   0.063   0.001  0.0233 -0.0468  0.0823
 1047Na+     N115447   0.724   2.880   4.390  0.1980 -0.0335  0.1468
 1048Na+     N115448   1.827   2.355   1.654 -0.3303  0.0837 -0.9415
 1049Na+     N115449   3.897   2.820   4.675 -0.0850 -0.0282 -0.2434
 1050Na+     N115450   4.889   0.251   3.773  0.1471 -0.0114 -0.6060
 1051Na+     N115451   4.500   4.227   5.392 -0.3077  0.4890  0.2483
 1052Na+     N115452   0.590   1.874   0.665  0.0401  0.2453 -0.4800
 1053Na+     N115453   4.840   5.166   4.772  1.1277 -0.0664  0.0149
 1054Na+     N115454   1.502   4.922   3.114  0.0077  0.1666  0.1265
 1055Na+     N115455   2.121   2.121   0.354 -0.2524 -0.0037  0.1823
 1056Na+     N115456   4.933   2.368   3.782  0.3073 -0.2316  0.0048
 1057Na+     N115457   5.252   2.382   5.430 -0.2246  0.0747 -0.0326
 1058Na+     N115458   5.328   2.748   0.863  0.0504 -0.0712 -0.2785
 1059Na+     N115459   2.893   0.630   1.800  0.0330 -0.7728  0.5874
 1060Na+     N115460   1.837   1.271   2.828  0.3802 -0.2600 -0.0081
 1061Na+     N115461   1.491   3.392   3.278 -0.3130 -0.1965 -0.1232
 1062Na+     N115462   1.008   4.585   3.859  0.6606 -0.4461  0.5202
 1063Na+     N115463   5.047   3.911   2.193 -0.1159  0.1273  0.3101
 1064Na+     N115464   4.514   0.260   2.505  0.1666 -0.1705  0.1656
 1065Na+     N115465   0.045   1.453   4.629  0.4530 -0.0805  0.4300
 1066Na+     N115466   0.768   0.720   1.796  0.0930 -0.3034 -0.0491
 1067Na+     N115467   2.159   1.078   3.674  0.0628 -0.6430  0.1880
 1068Na+     N115468   4.228   4.833   0.385  0.0601  0.4564  0.5739
 1069Na+     N115469   5.054   1.460   0.124 -0.3790 -0.2637 -0.5431
 1070Na+     N115470   3.178   3.258   2.843  0.0453  0.2899  0.2502
 1071Na+     N115471   2.679   4.995   0.199 -0.1150 -0.0611  0.0566
 1072Na+     N115472   3.746   2.156   0.291 -0.1267  0.1701 -0.0694
 1073Na+     N115473   0.754   3.728   1.505  0.0592  0.2974  0.4340
 1074Na+     N115474   3.645   4.853   3.243 -0.2745 -0.4255 -0.5791
 1075Na+     N115475   2.939   2.340   0.112 -0.5355  0.0556  0.3209
 1076Na+     N115476   0.242   3.682   2.771 -0.1064  0.2302 -0.0325
 1077Na+     N115477   3.868   3.804   3.929  0.1824  0.3383 -0.1439
 1078Na+     N115478   1.431   0.338   2.779 -0.6203  0.3057 -0.2343
 1079Na+     N115479   3.351   0.004   1.293 -0.5507 -0.1377  0.0314
 1080Na+     N115480   2.916   3.950   4.884  0.1276  0.1543  0.3224
 1081Na+     N115481   2.760   0.929   0.745  0.0092 -0.3211 -0.6466
 1082Na+     N115482   3.954   3.692   2.896 -0.5186  0.1785  0.2681
 1083Na+     N115483   1.391   0.854   0.471  0.4773 -0.0892  0.0075
 1084Na+     N115484   4.084   1.973   3.129 -0.1106 -0.0381  0.0305
 1085Na+     N115485   1.298   5.053   1.704  0.0560 -0.2707  0.5584
 1086Na+     N115486   4.862   1.061   2.250  0.0366  0.0239  0.8193
 1087Na+     N115487   2.414   1.463   4.680 -0.3323  0.1504 -0.1604
 1088Na+     N115488   3.102   0.287   4.459  0.5306 -0.2378 -0.6678
 1089Na+     N115489   3.324   0.063   2.294 -0.0521 -0.2474  0.1795
 1090Na+     N115490   4.990   1.864   1.079 -0.0942 -0.0514 -0.3551
 1091Na+     N115491   4.518   0.259   1.370 -0.0992  0.4466  0.1067
 1092Na+     N115492   3.730   0.918   0.246 -0.6017  0.2593  0.0080
 1093Na+     N115493   2.807   2.550   3.066  0.0536  0.2473  0.0945
 1094Na+     N115494   2.143   3.753   2.908 -0.0664 -0.0135  0.0635
 1095Na+     N115495   0.912   1.219   4.739 -0.4451  0.3870  0.0445
 1096Na+     N115496   0.039   4.551   4.639 -0.4555 -0.2725 -0.1072
 1097Na+     N115497   2.698   4.969   1.061 -0.0596  0.0770  0.4903
 1098Na+     N115498   1.946   4.366   4.350  0.0468 -0.0757 -0.3446
 1099Na+     N115499   3.969   1.936   4.374  0.2774  0.2606  0.0224
 1100Na+     N115500   4.497   1.494   4.800  0.3563 -0.0454 -0.1502
   5.50536   5.50536   5.50536
